ITEM: TIMESTEP
0
ITEM: NUMBER OF ATOMS
30
ITEM: BOX BOUNDS pp pp pp
-5.7758099999999999e+00 5.7758099999999999e+00
-5.7758099999999999e+00 5.7758099999999999e+00
-5.7758099999999999e+00 5.7758099999999999e+00
ITEM: ATOMS id mol type xu yu zu 
1 1 1 3.5234 18.4465 -21.1409 
2 1 1 3.54486 18.818 -20.2789 
3 1 1 2.69407 19.0212 -19.8881 
4 1 1 2.63767 19.1009 -18.9238 
5 1 1 2.04698 19.2049 -18.1583 
6 1 1 1.93332 18.4233 -17.6078 
7 1 1 1.94332 17.744 -16.8626 
8 1 1 2.01976 17.7752 -15.9123 
9 1 1 2.81076 17.7622 -15.3975 
10 1 1 3.36016 17.1223 -14.9326 
11 1 1 3.36317 16.6351 -14.1136 
12 1 1 3.02427 15.9388 -13.5791 
13 1 1 2.18855 16.4997 -13.4712 
14 1 1 1.95676 17.1588 -12.8221 
15 1 1 2.66888 17.7446 -13.0456 
16 1 1 3.52902 18.0476 -13.2881 
17 1 1 3.44037 18.9171 -13.6896 
18 1 1 4.03205 19.4408 -14.272 
19 1 1 4.7627 19.3695 -13.6732 
20 1 1 5.25089 18.6285 -14.0213 
21 1 1 6.16142 18.6276 -13.8963 
22 1 1 6.88428 18.0574 -14.1631 
23 1 1 6.71491 17.2202 -14.5779 
24 1 1 7.45301 16.6847 -14.3612 
25 1 1 7.10179 15.8433 -14.6587 
26 1 1 6.50229 15.4586 -15.2777 
27 1 1 5.6439 15.3723 -14.9072 
28 1 1 5.58598 15.5882 -13.9888 
29 1 1 4.79915 16.043 -13.6892 
30 1 1 4.22446 15.8878 -13.0038 
ITEM: TIMESTEP
1000
ITEM: NUMBER OF ATOMS
30
ITEM: BOX BOUNDS pp pp pp
-5.7758099999999999e+00 5.7758099999999999e+00
-5.7758099999999999e+00 5.7758099999999999e+00
-5.7758099999999999e+00 5.7758099999999999e+00
ITEM: ATOMS id mol type xu yu zu 
1 1 1 3.4864 18.8399 -21.2557 
2 1 1 3.526 19.1635 -20.4025 
3 1 1 2.91786 19.1221 -19.6664 
4 1 1 2.3507 19.1052 -18.8559 
5 1 1 1.97109 18.6298 -18.1401 
6 1 1 1.4626 18.1853 -17.4419 
7 1 1 2.04698 17.8667 -16.7276 
8 1 1 2.70384 18.0568 -16.0882 
9 1 1 2.56137 17.4841 -15.2767 
10 1 1 3.33761 17.5787 -14.7214 
11 1 1 3.22058 16.8917 -14.0623 
12 1 1 3.03101 16.0349 -13.6494 
13 1 1 2.11072 16.2851 -13.4991 
14 1 1 2.17202 16.8168 -12.7005 
15 1 1 2.79483 17.4965 -12.3749 
16 1 1 3.39849 17.9263 -13.0335 
17 1 1 3.32227 18.8646 -13.3137 
18 1 1 3.98502 19.1274 -13.9878 
19 1 1 4.85584 19.4241 -13.7348 
20 1 1 5.49282 18.7891 -14.0496 
21 1 1 6.14732 18.0765 -14.0623 
22 1 1 6.302 17.214 -14.4596 
23 1 1 6.84182 16.4902 -14.8628 
24 1 1 7.67196 16.2271 -14.4354 
25 1 1 7.61599 15.2623 -14.6061 
26 1 1 6.76882 14.9632 -14.8217 
27 1 1 5.83714 15.1902 -14.9795 
28 1 1 5.52306 14.5996 -14.1976 
29 1 1 5.14126 15.3662 -13.7878 
30 1 1 4.21914 15.3356 -13.5776 
ITEM: TIMESTEP
2000
ITEM: NUMBER OF ATOMS
30
ITEM: BOX BOUNDS pp pp pp
-5.7758099999999999e+00 5.7758099999999999e+00
-5.7758099999999999e+00 5.7758099999999999e+00
-5.7758099999999999e+00 5.7758099999999999e+00
ITEM: ATOMS id mol type xu yu zu 
1 1 1 3.53775 19.2234 -21.2222 
2 1 1 3.48449 19.2197 -20.2705 
3 1 1 3.16596 19.9272 -19.6111 
4 1 1 2.83691 19.2609 -18.9564 
5 1 1 2.23764 18.7252 -18.3592 
6 1 1 1.81723 18.3376 -17.6331 
7 1 1 1.95958 18.2601 -16.6833 
8 1 1 2.4848 18.4292 -15.8823 
9 1 1 2.56615 17.5903 -15.5064 
10 1 1 3.30486 17.5992 -14.8633 
11 1 1 3.10027 16.8878 -14.2542 
12 1 1 2.89029 15.9537 -14.0412 
13 1 1 2.16193 16.3978 -13.5934 
14 1 1 2.10951 16.4098 -12.6148 
15 1 1 2.85686 17.0193 -12.538 
16 1 1 3.50231 17.6779 -12.7869 
17 1 1 3.83549 18.2572 -13.439 
18 1 1 4.13933 19.1412 -13.3113 
19 1 1 5.05107 19.2559 -13.6335 
20 1 1 5.78822 18.9313 -14.2286 
21 1 1 6.02656 18.0552 -14.6136 
22 1 1 6.53532 17.2487 -14.3665 
23 1 1 7.18666 16.7521 -14.945 
24 1 1 7.74475 16.1408 -14.4274 
25 1 1 7.2383 15.32 -14.6141 
26 1 1 6.86919 15.0548 -15.4234 
27 1 1 5.89799 15.0757 -15.425 
28 1 1 5.6667 15.2519 -14.5036 
29 1 1 5.22894 15.5983 -13.7135 
30 1 1 4.44547 15.0208 -13.6965 
ITEM: TIMESTEP
3000
ITEM: NUMBER OF ATOMS
30
ITEM: BOX BOUNDS pp pp pp
-5.7758099999999999e+00 5.7758099999999999e+00
-5.7758099999999999e+00 5.7758099999999999e+00
-5.7758099999999999e+00 5.7758099999999999e+00
ITEM: ATOMS id mol type xu yu zu 
1 1 1 3.83908 19.1607 -20.9755 
2 1 1 3.59982 19.5725 -20.1559 
3 1 1 3.17406 19.014 -19.4916 
4 1 1 2.86084 19.3369 -18.6279 
5 1 1 2.25647 18.6133 -18.2687 
6 1 1 2.10394 18.4107 -17.378 
7 1 1 1.93945 18.8924 -16.5255 
8 1 1 2.63276 18.3104 -16.2626 
9 1 1 2.74155 17.8716 -15.406 
10 1 1 3.59328 17.4086 -15.3482 
11 1 1 3.50546 17.2075 -14.3492 
12 1 1 2.70588 16.7094 -14.4026 
13 1 1 1.75356 16.833 -14.3942 
14 1 1 1.53074 16.5132 -13.4936 
15 1 1 2.1479 16.8772 -12.8671 
16 1 1 2.89248 17.5324 -12.9863 
17 1 1 3.26698 18.3892 -13.1716 
18 1 1 3.92815 19.0947 -13.3329 
19 1 1 4.88518 19.0238 -13.6197 
20 1 1 5.12724 18.1392 -13.9945 
21 1 1 5.95333 17.8889 -14.3883 
22 1 1 6.73501 17.3129 -14.4702 
23 1 1 7.24568 16.8662 -15.1215 
24 1 1 7.93328 16.2396 -15.1082 
25 1 1 7.7187 15.3996 -14.7353 
26 1 1 7.06848 14.6999 -14.7752 
27 1 1 6.13398 14.7938 -14.3976 
28 1 1 5.32512 15.3346 -14.3126 
29 1 1 4.39279 15.1198 -14.3286 
30 1 1 4.18968 14.8314 -13.4438 
ITEM: TIMESTEP
4000
ITEM: NUMBER OF ATOMS
30
ITEM: BOX BOUNDS pp pp pp
-5.7758099999999999e+00 5.7758099999999999e+00
-5.7758099999999999e+00 5.7758099999999999e+00
-5.7758099999999999e+00 5.7758099999999999e+00
ITEM: ATOMS id mol type xu yu zu 
1 1 1 3.43395 19.3653 -21.0111 
2 1 1 3.11019 19.4578 -20.1126 
3 1 1 3.33356 18.7986 -19.5022 
4 1 1 3.12976 18.7845 -18.5479 
5 1 1 2.22132 18.6563 -18.2853 
6 1 1 2.09935 19.0241 -17.4021 
7 1 1 1.59267 19.5857 -16.8857 
8 1 1 2.23019 19.0335 -16.379 
9 1 1 2.7127 18.3505 -15.848 
10 1 1 3.51875 17.8731 -15.6834 
11 1 1 3.6159 17.3107 -14.9409 
12 1 1 2.95017 17.2254 -14.2988 
13 1 1 2.09537 16.902 -14.5967 
14 1 1 1.74818 16.6555 -13.7302 
15 1 1 2.35329 16.8765 -13.0161 
16 1 1 2.48549 17.8699 -13.0195 
17 1 1 3.33264 18.3468 -13.1486 
18 1 1 3.37608 19.1254 -13.7594 
19 1 1 4.33559 19.1131 -14.0445 
20 1 1 5.02853 18.5714 -14.4116 
21 1 1 5.79787 18.0503 -14.6212 
22 1 1 6.39664 17.2696 -14.7391 
23 1 1 7.07999 16.8471 -15.26 
24 1 1 7.5623 16.0124 -15.1103 
25 1 1 7.48142 15.3545 -14.39 
26 1 1 6.70153 14.8027 -14.5142 
27 1 1 5.77957 14.7687 -14.4572 
28 1 1 5.06409 15.2694 -14.7628 
29 1 1 4.40237 15.3679 -14.0534 
30 1 1 3.91881 14.7176 -13.5625 
ITEM: TIMESTEP
5000
ITEM: NUMBER OF ATOMS
30
ITEM: BOX BOUNDS pp pp pp
-5.7758099999999999e+00 5.7758099999999999e+00
-5.7758099999999999e+00 5.7758099999999999e+00
-5.7758099999999999e+00 5.7758099999999999e+00
ITEM: ATOMS id mol type xu yu zu 
1 1 1 3.27326 18.9965 -21.0304 
2 1 1 3.09764 18.9752 -20.1231 
3 1 1 3.41444 19.276 -19.2486 
4 1 1 3.00185 19.4229 -18.4104 
5 1 1 2.54582 18.6926 -18.0286 
6 1 1 1.81737 19.2113 -17.8094 
7 1 1 1.8029 19.3456 -16.8887 
8 1 1 1.79258 18.663 -16.1759 
9 1 1 2.68501 18.5066 -16.0132 
10 1 1 3.4816 18.0695 -15.7144 
11 1 1 3.66965 17.134 -15.4061 
12 1 1 3.22205 16.2766 -15.2988 
13 1 1 2.44031 16.4306 -14.8182 
14 1 1 2.37401 16.4812 -13.8243 
15 1 1 2.36875 16.9629 -13.0066 
16 1 1 3.03402 17.5207 -13.3764 
17 1 1 3.23964 18.4468 -13.5144 
18 1 1 4.04746 18.8652 -13.8843 
19 1 1 4.87745 18.5659 -13.5338 
20 1 1 5.82313 18.6065 -13.7261 
21 1 1 6.22491 18.1771 -14.5065 
22 1 1 6.5373 17.3286 -14.2501 
23 1 1 6.80487 16.8583 -15.0737 
24 1 1 7.43813 16.176 -15.2339 
25 1 1 7.6128 15.4438 -14.6557 
26 1 1 6.96084 14.8779 -14.9974 
27 1 1 6.0117 14.8229 -14.7156 
28 1 1 5.14938 15.1566 -14.4026 
29 1 1 4.41353 15.4625 -13.8491 
30 1 1 4.02952 14.5893 -13.8367 
ITEM: TIMESTEP
6000
ITEM: NUMBER OF ATOMS
30
ITEM: BOX BOUNDS pp pp pp
-5.7758099999999999e+00 5.7758099999999999e+00
-5.7758099999999999e+00 5.7758099999999999e+00
-5.7758099999999999e+00 5.7758099999999999e+00
ITEM: ATOMS id mol type xu yu zu 
1 1 1 3.42023 18.3827 -20.4663 
2 1 1 2.83951 18.9216 -20.0069 
3 1 1 3.23368 19.4862 -19.2867 
4 1 1 2.63715 19.6787 -18.5891 
5 1 1 2.28742 18.8118 -18.3836 
6 1 1 2.17555 18.8508 -17.403 
7 1 1 2.27479 19.5462 -16.7726 
8 1 1 2.32791 18.9932 -16.0336 
9 1 1 3.11933 18.4172 -16.0835 
10 1 1 3.43962 17.5448 -16.3839 
11 1 1 3.42978 16.738 -15.8453 
12 1 1 3.62613 16.3663 -14.9514 
13 1 1 2.72467 16.3653 -14.5715 
14 1 1 2.26379 16.4662 -13.7129 
15 1 1 1.969 17.3299 -13.4091 
16 1 1 2.73962 17.8761 -13.4795 
17 1 1 3.63964 18.0514 -13.7895 
18 1 1 4.29578 18.7076 -13.8989 
19 1 1 4.90978 18.8586 -13.1121 
20 1 1 5.42066 18.0392 -12.9812 
21 1 1 5.95425 17.7328 -13.7001 
22 1 1 6.50907 17.675 -14.5043 
23 1 1 6.57129 17.1198 -15.2406 
24 1 1 6.99926 16.2264 -15.3594 
25 1 1 7.45875 15.476 -14.9178 
26 1 1 6.89612 14.7976 -15.3247 
27 1 1 6.08876 15.0672 -14.8183 
28 1 1 5.27646 15.4459 -14.3631 
29 1 1 4.63931 15.084 -13.771 
30 1 1 3.73247 15.1296 -14.0752 
ITEM: TIMESTEP
7000
ITEM: NUMBER OF ATOMS
30
ITEM: BOX BOUNDS pp pp pp
-5.7758099999999999e+00 5.7758099999999999e+00
-5.7758099999999999e+00 5.7758099999999999e+00
-5.7758099999999999e+00 5.7758099999999999e+00
ITEM: ATOMS id mol type xu yu zu 
1 1 1 3.70806 19.2298 -20.3107 
2 1 1 2.78297 19.324 -20.0326 
3 1 1 2.96864 19.2165 -19.0904 
4 1 1 2.59458 19.9976 -18.7037 
5 1 1 2.4555 19.3474 -17.9406 
6 1 1 2.03933 18.7372 -17.2778 
7 1 1 2.07268 18.8953 -16.3541 
8 1 1 2.81185 18.9115 -15.7421 
9 1 1 3.18334 18.1298 -16.1084 
10 1 1 3.84339 17.5029 -15.9692 
11 1 1 3.73483 16.7278 -15.4574 
12 1 1 3.29726 16.0278 -14.8699 
13 1 1 2.562 15.9411 -14.2155 
14 1 1 1.95638 16.6732 -14.0117 
15 1 1 2.12941 17.6077 -14.0987 
16 1 1 2.94735 17.9009 -13.678 
17 1 1 3.62207 17.9175 -14.3269 
18 1 1 4.46232 18.1873 -13.95 
19 1 1 5.0676 18.4959 -13.2756 
20 1 1 5.84175 17.924 -13.2238 
21 1 1 6.28299 17.6632 -14.0686 
22 1 1 6.42511 17.6296 -15.0237 
23 1 1 6.5661 16.7337 -15.2633 
24 1 1 7.15296 16.1049 -15.66 
25 1 1 7.06099 15.2483 -15.2202 
26 1 1 6.71777 14.6961 -14.5108 
27 1 1 5.8689 15.0631 -14.3447 
28 1 1 5.00362 14.7315 -14.0927 
29 1 1 4.514 15.395 -13.6098 
30 1 1 3.54503 15.0917 -13.6509 
ITEM: TIMESTEP
8000
ITEM: NUMBER OF ATOMS
30
ITEM: BOX BOUNDS pp pp pp
-5.7758099999999999e+00 5.7758099999999999e+00
-5.7758099999999999e+00 5.7758099999999999e+00
-5.7758099999999999e+00 5.7758099999999999e+00
ITEM: ATOMS id mol type xu yu zu 
1 1 1 3.72726 19.3324 -20.5839 
2 1 1 2.79778 19.2137 -20.3162 
3 1 1 2.29183 19.3063 -19.5192 
4 1 1 2.26548 19.9046 -18.7349 
5 1 1 1.92291 19.3387 -18.053 
6 1 1 1.99448 19.41 -17.0751 
7 1 1 2.67999 18.995 -16.5285 
8 1 1 2.36727 18.2121 -16.0659 
9 1 1 3.29805 17.9052 -16.2562 
10 1 1 3.43116 17.0255 -15.8286 
11 1 1 3.59299 16.5812 -15.0217 
12 1 1 3.82626 15.6547 -14.9353 
13 1 1 2.86401 15.7706 -14.7828 
14 1 1 2.6779 16.0496 -13.8761 
15 1 1 2.66065 17.0222 -13.8483 
16 1 1 3.33907 17.6591 -14.1351 
17 1 1 4.05429 17.996 -14.7102 
18 1 1 4.63646 18.4889 -14.1249 
19 1 1 4.94278 18.6021 -13.2468 
20 1 1 5.6986 17.9777 -13.5818 
21 1 1 6.08458 17.3162 -14.1505 
22 1 1 6.59309 17.5342 -14.9345 
23 1 1 6.89975 17.124 -15.6853 
24 1 1 6.91158 16.2832 -15.0969 
25 1 1 6.97243 15.3996 -14.6723 
26 1 1 6.56556 15.3111 -13.8097 
27 1 1 5.83872 14.8757 -14.1555 
28 1 1 5.12952 14.7987 -13.4845 
29 1 1 4.27908 15.2477 -13.5662 
30 1 1 3.59893 14.7028 -13.8529 
ITEM: TIMESTEP
9000
ITEM: NUMBER OF ATOMS
30
ITEM: BOX BOUNDS pp pp pp
-5.7758099999999999e+00 5.7758099999999999e+00
-5.7758099999999999e+00 5.7758099999999999e+00
-5.7758099999999999e+00 5.7758099999999999e+00
ITEM: ATOMS id mol type xu yu zu 
1 1 1 2.76896 19.1156 -20.5229 
2 1 1 1.90698 18.8697 -20.2073 
3 1 1 1.71708 19.2381 -19.3424 
4 1 1 2.06199 19.968 -18.807 
5 1 1 1.82235 19.7795 -17.8996 
6 1 1 1.699 19.4736 -17.0235 
7 1 1 2.25763 19.0921 -16.3324 
8 1 1 1.97498 18.2299 -16.0452 
9 1 1 2.82635 17.8671 -16.2568 
10 1 1 3.30862 17.0765 -16.0722 
11 1 1 3.27833 16.1575 -15.788 
12 1 1 3.17891 15.5471 -15.0204 
13 1 1 2.27036 15.779 -15.0924 
14 1 1 2.55796 16.2186 -14.3481 
15 1 1 2.51761 17.1761 -14.0684 
16 1 1 3.38736 17.362 -14.4075 
17 1 1 4.17396 17.797 -14.7577 
18 1 1 4.76522 18.2257 -14.147 
19 1 1 5.11088 17.5696 -13.4566 
20 1 1 6.01409 17.5949 -13.708 
21 1 1 6.25914 17.6394 -14.6187 
22 1 1 7.03788 17.8269 -15.1593 
23 1 1 6.87404 17.1101 -15.7921 
24 1 1 6.86829 16.2298 -15.2913 
25 1 1 6.60866 15.346 -15.158 
26 1 1 6.56275 15.4776 -14.1573 
27 1 1 5.58775 15.6014 -14.0469 
28 1 1 4.93094 15.354 -13.434 
29 1 1 4.03876 15.1799 -13.0892 
30 1 1 3.81223 14.3527 -13.4798 
ITEM: TIMESTEP
10000
ITEM: NUMBER OF ATOMS
30
ITEM: BOX BOUNDS pp pp pp
-5.7758099999999999e+00 5.7758099999999999e+00
-5.7758099999999999e+00 5.7758099999999999e+00
-5.7758099999999999e+00 5.7758099999999999e+00
ITEM: ATOMS id mol type xu yu zu 
1 1 1 2.26264 18.2495 -20.8044 
2 1 1 1.92041 18.9774 -20.2541 
3 1 1 1.59231 19.4841 -19.5371 
4 1 1 2.21907 19.6547 -18.8639 
5 1 1 1.84003 19.342 -17.9963 
6 1 1 1.39949 19.4602 -17.1358 
7 1 1 2.09318 19.3442 -16.5005 
8 1 1 2.3545 18.8382 -15.7564 
9 1 1 2.2609 18.1088 -16.3146 
10 1 1 2.95189 17.5529 -16.019 
11 1 1 3.09988 16.882 -15.367 
12 1 1 2.91956 15.9492 -15.3541 
13 1 1 2.01007 15.8242 -15.0865 
14 1 1 2.33237 16.3786 -14.3314 
15 1 1 3.05542 16.9183 -14.049 
16 1 1 3.71761 17.6103 -14.1076 
17 1 1 4.38741 18.0597 -14.6866 
18 1 1 4.73009 18.6775 -14.0274 
19 1 1 5.0475 17.9917 -13.4033 
20 1 1 5.89906 17.6903 -13.6801 
21 1 1 6.42268 18.0688 -14.4045 
22 1 1 7.03022 17.4162 -14.8115 
23 1 1 6.63351 16.7286 -15.3697 
24 1 1 6.44609 15.8187 -15.2174 
25 1 1 6.71702 15.294 -14.4518 
26 1 1 6.32276 15.8036 -13.7259 
27 1 1 5.56067 15.363 -13.3559 
28 1 1 4.73418 15.1093 -12.9857 
29 1 1 3.85183 15.2015 -12.715 
30 1 1 3.76965 14.2358 -12.8613 
ITEM: TIMESTEP
11000
ITEM: NUMBER OF ATOMS
30
ITEM: BOX BOUNDS pp pp pp
-5.7758099999999999e+00 5.7758099999999999e+00
-5.7758099999999999e+00 5.7758099999999999e+00
-5.7758099999999999e+00 5.7758099999999999e+00
ITEM: ATOMS id mol type xu yu zu 
1 1 1 2.52253 18.3895 -20.5668 
2 1 1 1.89172 19.0758 -20.579 
3 1 1 1.30691 19.5156 -19.9917 
4 1 1 1.95387 19.8433 -19.4034 
5 1 1 1.94771 19.237 -18.6965 
6 1 1 2.1732 19.439 -17.7662 
7 1 1 1.75111 18.8737 -17.161 
8 1 1 1.76808 18.7524 -16.1655 
9 1 1 2.34793 18.0578 -15.7969 
10 1 1 2.89298 17.3164 -16.1117 
11 1 1 3.01187 16.4032 -15.8087 
12 1 1 2.244 15.8296 -15.5165 
13 1 1 1.87252 16.6877 -15.2273 
14 1 1 2.23862 16.5995 -14.3476 
15 1 1 2.91324 17.2939 -14.2897 
16 1 1 3.83315 17.4636 -14.0428 
17 1 1 4.35446 18.1406 -14.4658 
18 1 1 4.69456 18.4798 -13.649 
19 1 1 5.23826 17.7535 -13.3137 
20 1 1 5.61779 17.6846 -14.2643 
21 1 1 6.17816 18.071 -14.9196 
22 1 1 6.1166 17.2237 -15.3424 
23 1 1 6.56435 16.3786 -15.5714 
24 1 1 7.15108 15.5741 -15.4501 
25 1 1 6.80188 15.0913 -14.6611 
26 1 1 6.4638 15.6788 -13.9648 
27 1 1 5.65719 15.4575 -13.5157 
28 1 1 4.98255 14.8505 -13.2624 
29 1 1 4.11466 14.4848 -13.3096 
30 1 1 3.84788 13.8877 -14.0196 
ITEM: TIMESTEP
12000
ITEM: NUMBER OF ATOMS
30
ITEM: BOX BOUNDS pp pp pp
-5.7758099999999999e+00 5.7758099999999999e+00
-5.7758099999999999e+00 5.7758099999999999e+00
-5.7758099999999999e+00 5.7758099999999999e+00
ITEM: ATOMS id mol type xu yu zu 
1 1 1 1.89166 18.583 -20.6767 
2 1 1 1.98958 19.5356 -20.7143 
3 1 1 1.43264 19.9545 -20.0521 
4 1 1 1.52842 19.5337 -19.1812 
5 1 1 0.971071 19.0068 -18.6337 
6 1 1 1.34109 18.7382 -17.7595 
7 1 1 1.42388 19.2473 -16.9813 
8 1 1 1.88133 18.6137 -16.4341 
9 1 1 2.36214 17.895 -15.9513 
10 1 1 3.25996 17.629 -15.8616 
11 1 1 3.30668 16.7372 -16.0592 
12 1 1 2.56052 16.3581 -15.5797 
13 1 1 1.67118 16.6596 -15.3116 
14 1 1 1.50709 16.7805 -14.3698 
15 1 1 2.37903 17.169 -14.38 
16 1 1 3.31784 17.0752 -14.3466 
17 1 1 3.61521 17.9864 -14.482 
18 1 1 3.88974 18.5726 -13.7776 
19 1 1 4.85564 18.5091 -13.5761 
20 1 1 5.12428 17.8743 -14.3064 
21 1 1 5.85091 17.3463 -14.6785 
22 1 1 6.23061 17.6387 -15.5152 
23 1 1 6.72208 16.8172 -15.7111 
24 1 1 7.23575 16.0102 -15.8139 
25 1 1 7.14836 15.4901 -14.9601 
26 1 1 6.49867 15.2854 -14.2623 
27 1 1 5.72494 15.2983 -13.6055 
28 1 1 4.95344 15.1143 -13.0205 
29 1 1 4.0657 14.7499 -12.9658 
30 1 1 3.73167 13.8332 -13.0435 
ITEM: TIMESTEP
13000
ITEM: NUMBER OF ATOMS
30
ITEM: BOX BOUNDS pp pp pp
-5.7758099999999999e+00 5.7758099999999999e+00
-5.7758099999999999e+00 5.7758099999999999e+00
-5.7758099999999999e+00 5.7758099999999999e+00
ITEM: ATOMS id mol type xu yu zu 
1 1 1 1.66011 18.8134 -20.9629 
2 1 1 1.14546 19.5987 -20.818 
3 1 1 0.713832 19.5472 -19.9253 
4 1 1 1.42202 19.5975 -19.2626 
5 1 1 1.28255 19.3882 -18.3409 
6 1 1 1.25888 18.9227 -17.5357 
7 1 1 1.8672 19.2345 -16.8279 
8 1 1 2.26779 18.4224 -16.5502 
9 1 1 2.1126 17.7252 -15.972 
10 1 1 3.05731 17.6517 -16.1658 
11 1 1 3.20073 16.7257 -15.9921 
12 1 1 2.65684 16.4309 -15.2462 
13 1 1 1.73933 16.5436 -15.0119 
14 1 1 2.09312 17.0086 -14.2983 
15 1 1 2.82695 17.5345 -14.1171 
16 1 1 3.66992 17.633 -14.539 
17 1 1 4.00044 18.5224 -14.6211 
18 1 1 4.75057 18.499 -14.0759 
19 1 1 5.17301 17.866 -13.5472 
20 1 1 5.24276 17.3964 -14.3555 
21 1 1 6.0799 17.4615 -14.7485 
22 1 1 6.59682 17.826 -15.4324 
23 1 1 7.18342 17.192 -15.8715 
24 1 1 7.24635 16.601 -15.1411 
25 1 1 7.32427 15.6077 -14.9824 
26 1 1 6.56331 15.4402 -14.3973 
27 1 1 5.92685 15.1761 -13.7202 
28 1 1 5.18354 14.7164 -13.2672 
29 1 1 4.30716 14.5046 -12.9464 
30 1 1 3.58874 14.0016 -12.621 
ITEM: TIMESTEP
14000
ITEM: NUMBER OF ATOMS
30
ITEM: BOX BOUNDS pp pp pp
-5.7758099999999999e+00 5.7758099999999999e+00
-5.7758099999999999e+00 5.7758099999999999e+00
-5.7758099999999999e+00 5.7758099999999999e+00
ITEM: ATOMS id mol type xu yu zu 
1 1 1 1.75124 19.4129 -21.1998 
2 1 1 0.875637 19.7251 -21.0106 
3 1 1 0.535379 20.4819 -20.4952 
4 1 1 0.520293 20.1945 -19.5818 
5 1 1 0.914641 19.9589 -18.7467 
6 1 1 1.3036 19.4019 -18.0845 
7 1 1 1.26363 19.3667 -17.1358 
8 1 1 1.63764 18.6145 -16.7218 
9 1 1 1.79015 17.7136 -16.3819 
10 1 1 2.54477 17.1969 -16.7191 
11 1 1 3.12112 16.5093 -16.2809 
12 1 1 2.48498 16.0323 -15.6659 
13 1 1 2.7944 15.5267 -14.9023 
14 1 1 2.80094 16.0665 -14.073 
15 1 1 3.50427 16.7219 -14.1709 
16 1 1 3.41185 17.6184 -13.9509 
17 1 1 3.99761 18.3335 -14.1258 
18 1 1 4.62557 18.3189 -13.4113 
19 1 1 4.88432 17.4371 -13.2172 
20 1 1 5.383 17.1625 -13.9864 
21 1 1 5.79891 17.3905 -14.8054 
22 1 1 6.64168 17.7897 -14.9934 
23 1 1 6.94923 17.078 -15.583 
24 1 1 7.18262 16.1735 -15.448 
25 1 1 7.1331 15.5842 -14.6973 
26 1 1 6.22246 15.4789 -14.3688 
27 1 1 5.6672 15.1465 -13.6482 
28 1 1 5.02787 14.5685 -13.3168 
29 1 1 4.33395 13.9279 -13.3927 
30 1 1 3.54793 13.6301 -12.8356 
ITEM: TIMESTEP
15000
ITEM: NUMBER OF ATOMS
30
ITEM: BOX BOUNDS pp pp pp
-5.7758099999999999e+00 5.7758099999999999e+00
-5.7758099999999999e+00 5.7758099999999999e+00
-5.7758099999999999e+00 5.7758099999999999e+00
ITEM: ATOMS id mol type xu yu zu 
1 1 1 1.70061 19.9168 -20.6724 
2 1 1 0.748115 19.9722 -20.6877 
3 1 1 0.568692 20.3716 -19.8626 
4 1 1 0.368275 19.6661 -19.2396 
5 1 1 0.625159 19.06 -18.5456 
6 1 1 1.32274 19.1767 -17.9124 
7 1 1 1.15944 18.9028 -17.0319 
8 1 1 1.54597 18.7284 -16.1722 
9 1 1 2.01601 18.1708 -16.7913 
10 1 1 2.69406 17.4664 -16.8656 
11 1 1 3.18825 16.7455 -16.491 
12 1 1 3.24053 15.964 -15.9706 
13 1 1 2.85541 15.8811 -15.1039 
14 1 1 3.08658 16.3965 -14.3204 
15 1 1 2.74877 17.0747 -13.7685 
16 1 1 2.93087 18.0237 -13.913 
17 1 1 3.88857 18.255 -13.8761 
18 1 1 4.37863 18.6308 -13.1267 
19 1 1 4.73331 17.6914 -13.1826 
20 1 1 5.15852 17.2618 -13.9136 
21 1 1 5.81752 17.5613 -14.5778 
22 1 1 6.41446 17.9175 -15.2442 
23 1 1 7.21125 17.3339 -15.3161 
24 1 1 6.81015 16.5107 -15.0981 
25 1 1 6.36068 15.6246 -14.9313 
26 1 1 5.98661 15.7892 -14.0967 
27 1 1 5.54339 14.9453 -13.8554 
28 1 1 4.80256 15.1593 -13.2172 
29 1 1 4.25271 14.3778 -13.0798 
30 1 1 3.54279 13.8238 -12.7167 
ITEM: TIMESTEP
16000
ITEM: NUMBER OF ATOMS
30
ITEM: BOX BOUNDS pp pp pp
-5.7758099999999999e+00 5.7758099999999999e+00
-5.7758099999999999e+00 5.7758099999999999e+00
-5.7758099999999999e+00 5.7758099999999999e+00
ITEM: ATOMS id mol type xu yu zu 
1 1 1 1.36189 19.5706 -21.0345 
2 1 1 0.527252 20.0745 -20.8374 
3 1 1 0.106298 20.4988 -20.0686 
4 1 1 0.26999 19.8332 -19.4213 
5 1 1 0.81971 19.6604 -18.6751 
6 1 1 0.867862 19.6267 -17.7067 
7 1 1 1.02862 18.9334 -17.044 
8 1 1 1.5144 18.3953 -16.409 
9 1 1 2.45607 18.2435 -16.5662 
10 1 1 2.41334 17.2873 -16.5405 
11 1 1 2.35771 16.6715 -15.7835 
12 1 1 3.05497 16.0679 -15.693 
13 1 1 2.66112 16.0828 -14.8261 
14 1 1 3.23872 16.6331 -14.3817 
15 1 1 2.7933 17.3747 -13.9838 
16 1 1 2.92787 18.3112 -14.0092 
17 1 1 3.59608 18.6867 -13.4257 
18 1 1 4.51882 18.4219 -13.4691 
19 1 1 4.57505 17.5608 -13.0202 
20 1 1 5.28409 17.463 -13.6481 
21 1 1 6.14018 17.1792 -13.9935 
22 1 1 6.69838 17.5611 -14.7069 
23 1 1 7.10292 17.1971 -15.4661 
24 1 1 6.66052 16.3935 -15.6253 
25 1 1 6.33381 15.7036 -15.0526 
26 1 1 6.12496 15.5771 -14.1339 
27 1 1 5.27297 15.2825 -13.805 
28 1 1 4.75606 14.627 -13.3342 
29 1 1 3.91584 14.7217 -13.7888 
30 1 1 3.65013 13.793 -13.8169 
ITEM: TIMESTEP
17000
ITEM: NUMBER OF ATOMS
30
ITEM: BOX BOUNDS pp pp pp
-5.7758099999999999e+00 5.7758099999999999e+00
-5.7758099999999999e+00 5.7758099999999999e+00
-5.7758099999999999e+00 5.7758099999999999e+00
ITEM: ATOMS id mol type xu yu zu 
1 1 1 1.25106 19.648 -21.1189 
2 1 1 0.97351 20.2253 -20.3804 
3 1 1 0.882717 20.526 -19.4473 
4 1 1 0.27999 19.8598 -19.0639 
5 1 1 0.59671 19.967 -18.1648 
6 1 1 0.730375 19.2624 -17.4541 
7 1 1 1.61677 18.9581 -17.6073 
8 1 1 1.61029 18.3675 -16.8258 
9 1 1 1.75381 17.4514 -16.463 
10 1 1 1.80728 16.5691 -16.7991 
11 1 1 2.67204 16.3766 -16.2869 
12 1 1 3.01749 15.9282 -15.506 
13 1 1 3.04432 15.8267 -14.5181 
14 1 1 3.25894 16.5753 -13.9357 
15 1 1 3.50883 17.4641 -14.0824 
16 1 1 3.07361 18.1188 -13.5016 
17 1 1 3.36809 18.8709 -13.0319 
18 1 1 4.20192 18.3887 -13.022 
19 1 1 4.87243 17.7318 -13.0374 
20 1 1 5.48603 17.2789 -13.701 
21 1 1 6.25337 17.3176 -14.2876 
22 1 1 7.07552 16.8233 -14.1853 
23 1 1 7.47998 16.9202 -15.0789 
24 1 1 6.9153 16.214 -15.3399 
25 1 1 6.34762 15.5185 -15.0149 
26 1 1 6.23434 15.5554 -14.1026 
27 1 1 5.30409 15.5313 -13.9656 
28 1 1 4.76403 15.0192 -13.3238 
29 1 1 4.36354 14.315 -13.7472 
30 1 1 4.08805 13.4493 -13.9897 
ITEM: TIMESTEP
18000
ITEM: NUMBER OF ATOMS
30
ITEM: BOX BOUNDS pp pp pp
-5.7758099999999999e+00 5.7758099999999999e+00
-5.7758099999999999e+00 5.7758099999999999e+00
-5.7758099999999999e+00 5.7758099999999999e+00
ITEM: ATOMS id mol type xu yu zu 
1 1 1 1.47473 19.653 -21.3725 
2 1 1 1.29333 20.3454 -20.7404 
3 1 1 0.656557 20.7 -20.0495 
4 1 1 0.482628 20.4193 -19.1545 
5 1 1 0.593729 20.2086 -18.2262 
6 1 1 0.448536 19.5834 -17.5258 
7 1 1 1.20753 18.9633 -17.1731 
8 1 1 1.40286 18.3269 -16.4173 
9 1 1 2.078 17.8626 -15.9438 
10 1 1 2.63127 17.1467 -16.3287 
11 1 1 3.32451 16.8986 -15.7202 
12 1 1 3.65144 16.1972 -15.1174 
13 1 1 3.52022 16.2026 -14.1578 
14 1 1 3.84427 16.8117 -13.5261 
15 1 1 4.03378 17.545 -14.2111 
16 1 1 3.76339 18.438 -14.1204 
17 1 1 3.88412 18.8691 -13.3054 
18 1 1 4.40745 18.5319 -12.5553 
19 1 1 5.12529 18.1623 -13.0957 
20 1 1 5.73173 18.1575 -13.8285 
21 1 1 6.37377 17.9439 -14.5212 
22 1 1 7.02635 17.2902 -14.3332 
23 1 1 7.15541 17.1288 -15.28 
24 1 1 6.69767 16.4734 -15.823 
25 1 1 6.05851 15.942 -15.2558 
26 1 1 5.70626 16.0731 -14.3399 
27 1 1 5.21641 15.7125 -13.6176 
28 1 1 4.80678 14.9731 -13.2621 
29 1 1 4.77727 14.4291 -14.0306 
30 1 1 4.36246 13.6983 -13.5681 
ITEM: TIMESTEP
19000
ITEM: NUMBER OF ATOMS
30
ITEM: BOX BOUNDS pp pp pp
-5.7758099999999999e+00 5.7758099999999999e+00
-5.7758099999999999e+00 5.7758099999999999e+00
-5.7758099999999999e+00 5.7758099999999999e+00
ITEM: ATOMS id mol type xu yu zu 
1 1 1 1.42349 19.7422 -21.6234 
2 1 1 0.87878 19.7997 -20.8086 
3 1 1 0.90913 19.635 -19.8681 
4 1 1 0.390791 20.1158 -19.1873 
5 1 1 0.477567 19.7901 -18.2805 
6 1 1 0.888312 19.2821 -17.6212 
7 1 1 1.08843 18.654 -16.9047 
8 1 1 1.814 18.3039 -16.3853 
9 1 1 1.89362 17.3569 -16.1222 
10 1 1 2.8648 17.3533 -16.0938 
11 1 1 3.27545 16.478 -15.9684 
12 1 1 3.76326 15.7051 -15.7472 
13 1 1 4.26481 16.0154 -14.9844 
14 1 1 4.3123 16.834 -14.4615 
15 1 1 4.28016 17.6487 -14.8776 
16 1 1 4.1389 18.5295 -14.5501 
17 1 1 3.60838 18.4606 -13.715 
18 1 1 4.26846 18.6087 -13.0291 
19 1 1 4.64821 17.763 -12.9377 
20 1 1 5.56482 17.8411 -13.3041 
21 1 1 6.09795 17.9665 -14.079 
22 1 1 6.61929 17.9378 -14.8898 
23 1 1 7.32443 17.4947 -15.4382 
24 1 1 7.24203 16.5435 -15.2143 
25 1 1 6.48693 15.9209 -15.1011 
26 1 1 6.42834 16.0137 -14.178 
27 1 1 5.51907 15.6449 -14.1174 
28 1 1 5.10243 14.8753 -13.8493 
29 1 1 4.85437 13.966 -14.1843 
30 1 1 4.27715 13.3219 -13.8185 
ITEM: TIMESTEP
20000
ITEM: NUMBER OF ATOMS
30
ITEM: BOX BOUNDS pp pp pp
-5.7758099999999999e+00 5.7758099999999999e+00
-5.7758099999999999e+00 5.7758099999999999e+00
-5.7758099999999999e+00 5.7758099999999999e+00
ITEM: ATOMS id mol type xu yu zu 
1 1 1 1.04071 19.184 -21.4355 
2 1 1 0.89588 19.9185 -20.8475 
3 1 1 1.03853 19.6629 -19.9775 
4 1 1 0.604924 20.1528 -19.263 
5 1 1 0.945826 19.9303 -18.353 
6 1 1 1.00385 19.6267 -17.4295 
7 1 1 1.69615 18.9919 -17.2249 
8 1 1 2.1792 18.1835 -16.9816 
9 1 1 1.87516 17.6632 -16.1854 
10 1 1 2.34717 16.8709 -16.2761 
11 1 1 2.83504 16.0623 -15.8539 
12 1 1 3.56999 15.4303 -15.7468 
13 1 1 4.31397 15.9367 -15.3169 
14 1 1 4.5783 16.7695 -14.77 
15 1 1 3.91815 17.4364 -14.9702 
16 1 1 4.20607 18.3569 -15.1633 
17 1 1 4.19366 18.7579 -14.3097 
18 1 1 4.05289 18.2843 -13.4777 
19 1 1 4.95255 17.9346 -13.4295 
20 1 1 5.88084 17.8094 -13.0987 
21 1 1 6.42544 18.4011 -13.5928 
22 1 1 6.98239 18.37 -14.361 
23 1 1 6.75885 17.734 -15.0835 
24 1 1 6.98456 17.0347 -15.6903 
25 1 1 6.44042 16.2494 -15.5918 
26 1 1 6.36779 16.0398 -14.6242 
27 1 1 5.98689 15.2028 -14.4693 
28 1 1 5.13785 15.1882 -13.9251 
29 1 1 5.05322 14.2985 -14.3407 
30 1 1 4.94534 13.3682 -14.5522 
ITEM: TIMESTEP
21000
ITEM: NUMBER OF ATOMS
30
ITEM: BOX BOUNDS pp pp pp
-5.7758099999999999e+00 5.7758099999999999e+00
-5.7758099999999999e+00 5.7758099999999999e+00
-5.7758099999999999e+00 5.7758099999999999e+00
ITEM: ATOMS id mol type xu yu zu 
1 1 1 1.7244 18.8174 -21.5868 
2 1 1 1.2781 19.5502 -21.1828 
3 1 1 0.976821 19.3691 -20.2892 
4 1 1 0.693918 20.0819 -19.7244 
5 1 1 1.02584 19.795 -18.8927 
6 1 1 1.0012 19.7339 -17.9175 
7 1 1 1.66525 19.222 -17.4794 
8 1 1 1.92007 18.5315 -16.8016 
9 1 1 1.8582 17.5783 -16.5068 
10 1 1 1.71693 16.6624 -16.2793 
11 1 1 2.4769 16.1746 -16.0978 
12 1 1 3.32358 15.867 -15.7916 
13 1 1 4.04653 15.9319 -15.1597 
14 1 1 4.55109 16.6687 -14.9056 
15 1 1 4.33335 17.5613 -15.2629 
16 1 1 4.33017 18.4464 -14.8955 
17 1 1 3.89645 19.1932 -14.5499 
18 1 1 3.9632 18.8656 -13.5821 
19 1 1 4.63707 18.2124 -13.3045 
20 1 1 5.51615 17.9038 -13.4148 
21 1 1 6.37815 18.1227 -13.7608 
22 1 1 7.10942 17.8683 -14.3392 
23 1 1 6.76084 17.738 -15.2031 
24 1 1 6.80843 16.9565 -15.7495 
25 1 1 6.59371 16.2646 -15.1397 
26 1 1 5.95663 16.373 -14.4823 
27 1 1 5.69696 15.4546 -14.3363 
28 1 1 4.84844 15.0647 -14.5311 
29 1 1 4.3922 14.3905 -14.9497 
30 1 1 4.33533 13.4753 -14.7275 
ITEM: TIMESTEP
22000
ITEM: NUMBER OF ATOMS
30
ITEM: BOX BOUNDS pp pp pp
-5.7758099999999999e+00 5.7758099999999999e+00
-5.7758099999999999e+00 5.7758099999999999e+00
-5.7758099999999999e+00 5.7758099999999999e+00
ITEM: ATOMS id mol type xu yu zu 
1 1 1 0.996795 18.7373 -21.4661 
2 1 1 1.00413 19.6886 -21.3317 
3 1 1 0.803115 19.7884 -20.3904 
4 1 1 1.27498 19.7859 -19.573 
5 1 1 1.5411 19.51 -18.7116 
6 1 1 1.71643 19.7498 -17.8459 
7 1 1 1.71326 18.969 -17.2837 
8 1 1 1.35258 18.2297 -16.842 
9 1 1 1.39965 17.3389 -16.4689 
10 1 1 1.92654 16.5969 -16.2799 
11 1 1 2.61466 15.8967 -16.3005 
12 1 1 3.39842 16.3984 -16.2682 
13 1 1 4.18724 16.2978 -15.7046 
14 1 1 4.5177 17.0271 -15.1747 
15 1 1 4.64236 17.9116 -15.5487 
16 1 1 4.17215 18.6114 -14.9882 
17 1 1 3.48768 18.9891 -14.435 
18 1 1 4.03353 19.1962 -13.6596 
19 1 1 4.73495 18.6981 -13.296 
20 1 1 5.61876 18.4617 -13.5425 
21 1 1 6.34514 18.0242 -13.9928 
22 1 1 6.95334 17.717 -14.683 
23 1 1 6.64433 17.5403 -15.6176 
24 1 1 6.13538 17.08 -16.2886 
25 1 1 6.27084 16.2077 -15.8181 
26 1 1 6.02776 16.1444 -14.9257 
27 1 1 5.27689 15.5246 -14.8096 
28 1 1 5.37043 14.5199 -14.8022 
29 1 1 4.83248 13.7402 -14.9496 
30 1 1 4.22327 13.5889 -14.2387 
ITEM: TIMESTEP
23000
ITEM: NUMBER OF ATOMS
30
ITEM: BOX BOUNDS pp pp pp
-5.7758099999999999e+00 5.7758099999999999e+00
-5.7758099999999999e+00 5.7758099999999999e+00
-5.7758099999999999e+00 5.7758099999999999e+00
ITEM: ATOMS id mol type xu yu zu 
1 1 1 1.0982 18.9053 -21.2425 
2 1 1 1.00212 19.7957 -20.8771 
3 1 1 0.999587 19.9476 -19.9269 
4 1 1 1.23029 20.1646 -19.0581 
5 1 1 1.37842 19.7129 -18.1989 
6 1 1 1.88495 19.5863 -17.398 
7 1 1 1.9118 18.7508 -16.8231 
8 1 1 1.80521 17.8264 -16.6739 
9 1 1 1.61938 17.2215 -15.9426 
10 1 1 1.70778 16.2993 -15.8186 
11 1 1 2.3773 15.6743 -16.1521 
12 1 1 3.12234 16.1779 -16.3105 
13 1 1 3.59712 16.4208 -15.5128 
14 1 1 4.20269 17.0348 -15.9272 
15 1 1 4.58532 17.5961 -15.2816 
16 1 1 4.08458 18.4026 -15.3518 
17 1 1 3.58476 18.8734 -14.6406 
18 1 1 4.31043 18.9917 -14.0358 
19 1 1 5.08274 18.6051 -13.5827 
20 1 1 5.96848 18.6244 -13.9056 
21 1 1 6.62443 18.4936 -14.5545 
22 1 1 7.13437 17.7497 -14.9533 
23 1 1 6.83397 17.1916 -15.7238 
24 1 1 6.66801 16.649 -16.5072 
25 1 1 5.87941 16.2487 -16.1148 
26 1 1 5.60626 15.9822 -15.2177 
27 1 1 5.15866 15.8707 -14.3018 
28 1 1 4.98352 15.0583 -14.6924 
29 1 1 4.56496 14.2572 -14.9031 
30 1 1 4.3123 13.8181 -14.0963 
ITEM: TIMESTEP
24000
ITEM: NUMBER OF ATOMS
30
ITEM: BOX BOUNDS pp pp pp
-5.7758099999999999e+00 5.7758099999999999e+00
-5.7758099999999999e+00 5.7758099999999999e+00
-5.7758099999999999e+00 5.7758099999999999e+00
ITEM: ATOMS id mol type xu yu zu 
1 1 1 1.32762 18.6437 -20.4628 
2 1 1 1.01358 19.5515 -20.3056 
3 1 1 1.16902 19.4763 -19.359 
4 1 1 1.52044 20.1039 -18.7283 
5 1 1 1.90601 20.0179 -17.8276 
6 1 1 1.71491 19.2504 -17.3008 
7 1 1 1.62153 18.5942 -16.6022 
8 1 1 1.71257 18.3992 -15.6411 
9 1 1 2.10312 17.499 -15.3933 
10 1 1 1.87421 16.832 -16.0202 
11 1 1 2.39391 16.2556 -16.5883 
12 1 1 3.27315 16.6072 -16.6602 
13 1 1 3.70957 16.0464 -16.0386 
14 1 1 4.25084 16.7273 -15.6795 
15 1 1 3.77293 17.5745 -15.6161 