ITEM: TIMESTEP
0
ITEM: NUMBER OF ATOMS
30
ITEM: BOX BOUNDS pp pp pp
-5.7758099999999999e+00 5.7758099999999999e+00
-5.7758099999999999e+00 5.7758099999999999e+00
-5.7758099999999999e+00 5.7758099999999999e+00
ITEM: ATOMS id mol type x y z 
1 1 1 3.5234 -4.65669 1.96236 
2 1 1 3.54486 -4.28528 2.82429 
3 1 1 2.69407 -4.08208 3.21518 
4 1 1 2.63767 -4.00238 4.17944 
5 1 1 2.04698 -3.8983 4.94495 
6 1 1 1.93332 -4.6799 5.4954 
7 1 1 1.94332 -5.35926 -5.31099 
8 1 1 2.01976 -5.32808 -4.36068 
9 1 1 2.81076 -5.34101 -3.84586 
10 1 1 3.36016 5.57072 -3.38097 
11 1 1 3.36317 5.08351 -2.56197 
12 1 1 3.02427 4.38722 -2.0275 
13 1 1 2.18855 4.94804 -1.91956 
14 1 1 1.95676 5.60715 -1.2705 
15 1 1 2.66888 -5.35868 -1.49399 
16 1 1 3.52902 -5.05562 -1.73651 
17 1 1 3.44037 -4.18615 -2.13796 
18 1 1 4.03205 -3.66244 -2.72041 
19 1 1 4.7627 -3.73373 -2.12163 
20 1 1 5.25089 -4.47474 -2.46965 
21 1 1 -5.3902 -4.47567 -2.34466 
22 1 1 -4.66734 -5.04579 -2.61145 
23 1 1 -4.83671 5.66862 -3.0263 
24 1 1 -4.09861 5.13311 -2.80962 
25 1 1 -4.44983 4.29165 -3.10711 
26 1 1 -5.04933 3.90699 -3.72611 
27 1 1 5.6439 3.82065 -3.35562 
28 1 1 5.58598 4.03662 -2.43714 
29 1 1 4.79915 4.49141 -2.13756 
30 1 1 4.22446 4.33621 -1.4522 
ITEM: TIMESTEP
1000
ITEM: NUMBER OF ATOMS
30
ITEM: BOX BOUNDS pp pp pp
-5.7758099999999999e+00 5.7758099999999999e+00
-5.7758099999999999e+00 5.7758099999999999e+00
-5.7758099999999999e+00 5.7758099999999999e+00
ITEM: ATOMS id mol type x y z 
1 1 1 3.4864 -4.26329 1.84755 
2 1 1 3.526 -3.93979 2.70071 
3 1 1 2.91786 -3.9811 3.43682 
4 1 1 2.3507 -3.99803 4.24733 
5 1 1 1.97109 -4.47345 4.96316 
6 1 1 1.4626 -4.91798 5.66138 
7 1 1 2.04698 -5.23651 -5.17599 
8 1 1 2.70384 -5.04641 -4.53663 
9 1 1 2.56137 -5.61909 -3.72511 
10 1 1 3.33761 -5.52458 -3.16979 
11 1 1 3.22058 5.34007 -2.51069 
12 1 1 3.03101 4.48324 -2.09782 
13 1 1 2.11072 4.73348 -1.94748 
14 1 1 2.17202 5.26514 -1.14884 
15 1 1 2.79483 -5.60672 -0.823311 
16 1 1 3.39849 -5.17696 -1.48187 
17 1 1 3.32227 -4.23865 -1.76205 
18 1 1 3.98502 -3.9758 -2.43613 
19 1 1 4.85584 -3.67919 -2.1832 
20 1 1 5.49282 -4.31412 -2.49799 
21 1 1 -5.4043 -5.02679 -2.51068 
22 1 1 -5.24962 5.66235 -2.908 
23 1 1 -4.7098 4.93861 -3.31122 
24 1 1 -3.87966 4.67546 -2.88374 
25 1 1 -3.93563 3.71068 -3.05444 
26 1 1 -4.7828 3.4116 -3.27012 
27 1 1 -5.71448 3.63856 -3.42784 
28 1 1 5.52306 3.04799 -2.64596 
29 1 1 5.14126 3.81459 -2.23617 
30 1 1 4.21914 3.78402 -2.02599 
ITEM: TIMESTEP
2000
ITEM: NUMBER OF ATOMS
30
ITEM: BOX BOUNDS pp pp pp
-5.7758099999999999e+00 5.7758099999999999e+00
-5.7758099999999999e+00 5.7758099999999999e+00
-5.7758099999999999e+00 5.7758099999999999e+00
ITEM: ATOMS id mol type x y z 
1 1 1 3.53775 -3.87985 1.88105 
2 1 1 3.48449 -3.88358 2.83276 
3 1 1 3.16596 -3.17606 3.49214 
4 1 1 2.83691 -3.84229 4.14681 
5 1 1 2.23764 -4.37808 4.74407 
6 1 1 1.81723 -4.76567 5.47016 
7 1 1 1.95958 -4.84311 -5.13172 
8 1 1 2.4848 -4.674 -4.33066 
9 1 1 2.56615 -5.51293 -3.95476 
10 1 1 3.30486 -5.50402 -3.31169 
11 1 1 3.10027 5.33614 -2.70262 
12 1 1 2.89029 4.40204 -2.48958 
13 1 1 2.16193 4.84618 -2.04176 
14 1 1 2.10951 4.85817 -1.06317 
15 1 1 2.85686 5.46765 -0.986362 
16 1 1 3.50231 -5.42539 -1.23525 
17 1 1 3.83549 -4.84603 -1.88739 
18 1 1 4.13933 -3.96209 -1.75972 
19 1 1 5.05107 -3.84736 -2.08183 
20 1 1 -5.7634 -4.17192 -2.67697 
21 1 1 -5.52506 -5.04805 -3.06203 
22 1 1 -5.0163 5.69704 -2.81484 
23 1 1 -4.36496 5.2005 -3.39335 
24 1 1 -3.80687 4.58914 -2.87575 
25 1 1 -4.31332 3.76836 -3.06245 
26 1 1 -4.68243 3.50319 -3.8718 
27 1 1 -5.65363 3.52413 -3.87338 
28 1 1 5.6667 3.70025 -2.95193 
29 1 1 5.22894 4.0467 -2.16188 
30 1 1 4.44547 3.46915 -2.14485 
ITEM: TIMESTEP
3000
ITEM: NUMBER OF ATOMS
30
ITEM: BOX BOUNDS pp pp pp
-5.7758099999999999e+00 5.7758099999999999e+00
-5.7758099999999999e+00 5.7758099999999999e+00
-5.7758099999999999e+00 5.7758099999999999e+00
ITEM: ATOMS id mol type x y z 
1 1 1 3.83908 -3.94254 2.12776 
2 1 1 3.59982 -3.5307 2.94733 
3 1 1 3.17406 -4.08928 3.61162 
4 1 1 2.86084 -3.76632 4.47532 
5 1 1 2.25647 -4.48991 4.83457 
6 1 1 2.10394 -4.6925 5.72522 
7 1 1 1.93945 -4.21087 -4.9739 
8 1 1 2.63276 -4.79284 -4.711 
9 1 1 2.74155 -5.23169 -3.85435 
10 1 1 3.59328 -5.69462 -3.79657 
11 1 1 3.50546 5.65591 -2.79761 
12 1 1 2.70588 5.15781 -2.85096 
13 1 1 1.75356 5.28133 -2.84258 
14 1 1 1.53074 4.96154 -1.94201 
15 1 1 2.1479 5.32561 -1.31548 
16 1 1 2.89248 -5.57082 -1.43468 
17 1 1 3.26698 -4.714 -1.61997 
18 1 1 3.92815 -4.00852 -1.78124 
19 1 1 4.88518 -4.07941 -2.06804 
20 1 1 5.12724 -4.96403 -2.44289 
21 1 1 -5.59829 -5.21434 -2.83672 
22 1 1 -4.81661 -5.79039 -2.91856 
23 1 1 -4.30594 5.31457 -3.56987 
24 1 1 -3.61834 4.688 -3.55657 
25 1 1 -3.83292 3.84795 -3.18369 
26 1 1 -4.48314 3.14823 -3.22356 
27 1 1 -5.41764 3.24215 -2.84602 
28 1 1 5.32512 3.78297 -2.76096 
29 1 1 4.39279 3.56822 -2.77696 
30 1 1 4.18968 3.27982 -1.89218 
ITEM: TIMESTEP
4000
ITEM: NUMBER OF ATOMS
30
ITEM: BOX BOUNDS pp pp pp
-5.7758099999999999e+00 5.7758099999999999e+00
-5.7758099999999999e+00 5.7758099999999999e+00
-5.7758099999999999e+00 5.7758099999999999e+00
ITEM: ATOMS id mol type x y z 
1 1 1 3.43395 -3.73791 2.09211 
2 1 1 3.11019 -3.64542 2.99065 
3 1 1 3.33356 -4.3046 3.601 
4 1 1 3.12976 -4.31872 4.55538 
5 1 1 2.22132 -4.44697 4.81793 
6 1 1 2.09935 -4.07913 5.70114 
7 1 1 1.59267 -3.51754 -5.33405 
8 1 1 2.23019 -4.06977 -4.82736 
9 1 1 2.7127 -4.75278 -4.2964 
10 1 1 3.51875 -5.23016 -4.13173 
11 1 1 3.6159 5.75907 -3.38925 
12 1 1 2.95017 5.67377 -2.74715 
13 1 1 2.09537 5.35036 -3.04507 
14 1 1 1.74818 5.10392 -2.1786 
15 1 1 2.35329 5.32491 -1.46453 
16 1 1 2.48549 -5.23332 -1.46789 
17 1 1 3.33264 -4.75646 -1.59699 
18 1 1 3.37608 -3.97786 -2.20776 
19 1 1 4.33559 -3.99018 -2.4929 
20 1 1 5.02853 -4.53189 -2.85999 
21 1 1 -5.75375 -5.05293 -3.06956 
22 1 1 -5.15498 5.71793 -3.18753 
23 1 1 -4.47163 5.29551 -3.70838 
24 1 1 -3.98932 4.46081 -3.55867 
25 1 1 -4.0702 3.80291 -2.83834 
26 1 1 -4.85009 3.25105 -2.96258 
27 1 1 5.77957 3.21704 -2.90557 
28 1 1 5.06409 3.71777 -3.21115 
29 1 1 4.40237 3.81633 -2.50182 
30 1 1 3.91881 3.16599 -2.0109 
ITEM: TIMESTEP
5000
ITEM: NUMBER OF ATOMS
30
ITEM: BOX BOUNDS pp pp pp
-5.7758099999999999e+00 5.7758099999999999e+00
-5.7758099999999999e+00 5.7758099999999999e+00
-5.7758099999999999e+00 5.7758099999999999e+00
ITEM: ATOMS id mol type x y z 
1 1 1 3.27326 -4.10673 2.07287 
2 1 1 3.09764 -4.12803 2.98015 
3 1 1 3.41444 -3.8272 3.85468 
4 1 1 3.00185 -3.68034 4.69289 
5 1 1 2.54582 -4.4106 5.07468 
6 1 1 1.81737 -3.89194 5.29386 
7 1 1 1.8029 -3.75767 -5.3371 
8 1 1 1.79258 -4.44023 -4.62424 
9 1 1 2.68501 -4.59667 -4.46162 
10 1 1 3.4816 -5.03372 -4.16283 
11 1 1 3.66965 5.58239 -3.85448 
12 1 1 3.22205 4.72494 -3.74716 
13 1 1 2.44031 4.87893 -3.26657 
14 1 1 2.37401 4.92963 -2.27266 
15 1 1 2.36875 5.41125 -1.45501 
16 1 1 3.03402 -5.58257 -1.82474 
17 1 1 3.23964 -4.65641 -1.96274 
18 1 1 4.04746 -4.23804 -2.33272 
19 1 1 4.87745 -4.53738 -1.98213 
20 1 1 -5.72849 -4.49677 -2.17448 
21 1 1 -5.32671 -4.92615 -2.95491 
22 1 1 -5.01432 5.777 -2.69846 
23 1 1 -4.74675 5.30667 -3.52211 
24 1 1 -4.11349 4.62436 -3.68227 
25 1 1 -3.93882 3.89221 -3.10409 
26 1 1 -4.59078 3.3263 -3.44578 
27 1 1 -5.53992 3.27127 -3.16401 
28 1 1 5.14938 3.60493 -2.85093 
29 1 1 4.41353 3.91084 -2.29753 
30 1 1 4.02952 3.03772 -2.28508 
ITEM: TIMESTEP
6000
ITEM: NUMBER OF ATOMS
30
ITEM: BOX BOUNDS pp pp pp
-5.7758099999999999e+00 5.7758099999999999e+00
-5.7758099999999999e+00 5.7758099999999999e+00
-5.7758099999999999e+00 5.7758099999999999e+00
ITEM: ATOMS id mol type x y z 
1 1 1 3.42023 -4.72059 2.63698 
2 1 1 2.83951 -4.18162 3.09633 
3 1 1 3.23368 -3.61706 3.81655 
4 1 1 2.63715 -3.42455 4.51417 
5 1 1 2.28742 -4.29147 4.71968 
6 1 1 2.17555 -4.25244 5.70028 
7 1 1 2.27479 -3.55702 -5.22099 
8 1 1 2.32791 -4.11009 -4.48194 
9 1 1 3.11933 -4.68607 -4.53188 
10 1 1 3.43962 -5.55842 -4.83232 
11 1 1 3.42978 5.18641 -4.29367 
12 1 1 3.62613 4.8147 -3.39978 
13 1 1 2.72467 4.81372 -3.01992 
14 1 1 2.26379 4.91461 -2.16127 
15 1 1 1.969 -5.77336 -1.85746 
16 1 1 2.73962 -5.22711 -1.92786 
17 1 1 3.63964 -5.05188 -2.23789 
18 1 1 4.29578 -4.3956 -2.34728 
19 1 1 4.90978 -4.24466 -1.56053 
20 1 1 5.42066 -5.06407 -1.42953 
21 1 1 -5.59737 -5.37041 -2.14851 
22 1 1 -5.04255 -5.42825 -2.95271 
23 1 1 -4.98033 5.56822 -3.68902 
24 1 1 -4.55236 4.67475 -3.80776 
25 1 1 -4.09287 3.92435 -3.36613 
26 1 1 -4.6555 3.24597 -3.7731 
27 1 1 -5.46286 3.51554 -3.26667 
28 1 1 5.27646 3.89431 -2.81148 
29 1 1 4.63931 3.53237 -2.21938 
30 1 1 3.73247 3.57793 -2.52356 
ITEM: TIMESTEP
7000
ITEM: NUMBER OF ATOMS
30
ITEM: BOX BOUNDS pp pp pp
-5.7758099999999999e+00 5.7758099999999999e+00
-5.7758099999999999e+00 5.7758099999999999e+00
-5.7758099999999999e+00 5.7758099999999999e+00
ITEM: ATOMS id mol type x y z 
1 1 1 3.70806 -3.87345 2.79252 
2 1 1 2.78297 -3.77922 3.07066 
3 1 1 2.96864 -3.88676 4.01287 
4 1 1 2.59458 -3.10563 4.3995 
5 1 1 2.4555 -3.75587 5.16267 
6 1 1 2.03933 -4.36601 -5.72619 
7 1 1 2.07268 -4.20792 -4.80252 
8 1 1 2.81185 -4.19172 -4.19051 
9 1 1 3.18334 -4.97344 -4.55677 
10 1 1 3.84339 -5.60033 -4.41754 
11 1 1 3.73483 5.1762 -3.90574 
12 1 1 3.29726 4.47617 -3.31833 
13 1 1 2.562 4.38944 -2.66391 
14 1 1 1.95638 5.12154 -2.46005 
15 1 1 2.12941 -5.49556 -2.54711 
16 1 1 2.94735 -5.20236 -2.1264 
17 1 1 3.62207 -5.1857 -2.77523 
18 1 1 4.46232 -4.91596 -2.39838 
19 1 1 5.0676 -4.60736 -1.72396 
20 1 1 -5.70987 -5.17928 -1.67216 
21 1 1 -5.26863 -5.44001 -2.51698 
22 1 1 -5.12651 -5.47369 -3.47205 
23 1 1 -4.98552 5.18203 -3.71166 
24 1 1 -4.39866 4.55331 -4.10834 
25 1 1 -4.49063 3.69669 -3.66854 
26 1 1 -4.83385 3.14445 -2.95917 
27 1 1 -5.68272 3.51152 -2.79306 
28 1 1 5.00362 3.17988 -2.54109 
29 1 1 4.514 3.84335 -2.05819 
30 1 1 3.54503 3.54009 -2.09923 
ITEM: TIMESTEP
8000
ITEM: NUMBER OF ATOMS
30
ITEM: BOX BOUNDS pp pp pp
-5.7758099999999999e+00 5.7758099999999999e+00
-5.7758099999999999e+00 5.7758099999999999e+00
-5.7758099999999999e+00 5.7758099999999999e+00
ITEM: ATOMS id mol type x y z 
1 1 1 3.72726 -3.77081 2.51938 
2 1 1 2.79778 -3.88957 2.78707 
3 1 1 2.29183 -3.79691 3.58407 
4 1 1 2.26548 -3.19863 4.3683 
5 1 1 1.92291 -3.76459 5.05028 
6 1 1 1.99448 -3.69323 -5.52347 
7 1 1 2.67999 -4.1082 -4.97684 
8 1 1 2.36727 -4.89117 -4.51426 
9 1 1 3.29805 -5.19808 -4.70456 
10 1 1 3.43116 5.47387 -4.27694 
11 1 1 3.59299 5.02955 -3.47007 
12 1 1 3.82626 4.10305 -3.38367 
13 1 1 2.86401 4.21901 -3.23116 
14 1 1 2.6779 4.498 -2.32444 
15 1 1 2.66065 5.47061 -2.29668 
16 1 1 3.33907 -5.44416 -2.5835 
17 1 1 4.05429 -5.1072 -3.15863 
18 1 1 4.63646 -4.61433 -2.57332 
19 1 1 4.94278 -4.50115 -1.69523 
20 1 1 5.6986 -5.12553 -2.03016 
21 1 1 -5.46704 5.76453 -2.59887 
22 1 1 -4.95853 -5.56904 -3.38287 
23 1 1 -4.65187 5.57239 -4.13369 
24 1 1 -4.64004 4.73156 -3.54527 
25 1 1 -4.57919 3.84798 -3.12068 
26 1 1 -4.98606 3.75944 -2.25808 
27 1 1 -5.7129 3.32411 -2.60383 
28 1 1 5.12952 3.24706 -1.93292 
29 1 1 4.27908 3.69611 -2.01457 
30 1 1 3.59893 3.15122 -2.30131 
ITEM: TIMESTEP
9000
ITEM: NUMBER OF ATOMS
30
ITEM: BOX BOUNDS pp pp pp
-5.7758099999999999e+00 5.7758099999999999e+00
-5.7758099999999999e+00 5.7758099999999999e+00
-5.7758099999999999e+00 5.7758099999999999e+00
ITEM: ATOMS id mol type x y z 
1 1 1 2.76896 -3.9876 2.58035 
2 1 1 1.90698 -4.23357 2.89597 
3 1 1 1.71708 -3.86512 3.76082 
4 1 1 2.06199 -3.13527 4.29623 
5 1 1 1.82235 -3.32373 5.20364 
6 1 1 1.699 -3.62967 -5.47192 
7 1 1 2.25763 -4.01115 -4.78073 
8 1 1 1.97498 -4.87335 -4.49354 
9 1 1 2.82635 -5.23616 -4.7052 
10 1 1 3.30862 5.52487 -4.52063 
11 1 1 3.27833 4.60586 -4.23634 
12 1 1 3.17891 3.99543 -3.46873 
13 1 1 2.27036 4.22743 -3.54078 
14 1 1 2.55796 4.66694 -2.79645 
15 1 1 2.51761 5.62444 -2.51682 
16 1 1 3.38736 -5.7412 -2.85587 
17 1 1 4.17396 -5.30627 -3.20611 
18 1 1 4.76522 -4.8775 -2.59536 
19 1 1 5.11088 -5.53368 -1.90495 
20 1 1 -5.53753 -5.50838 -2.15635 
21 1 1 -5.29248 -5.46389 -3.06711 
22 1 1 -4.51374 -5.27632 -3.60764 
23 1 1 -4.67758 5.55847 -4.24051 
24 1 1 -4.68333 4.67815 -3.73969 
25 1 1 -4.94296 3.7944 -3.60637 
26 1 1 -4.98887 3.92598 -2.60569 
27 1 1 5.58775 4.04977 -2.49523 
28 1 1 4.93094 3.80242 -1.88242 
29 1 1 4.03876 3.62824 -1.53762 
30 1 1 3.81223 2.80112 -1.92816 
ITEM: TIMESTEP
10000
ITEM: NUMBER OF ATOMS
30
ITEM: BOX BOUNDS pp pp pp
-5.7758099999999999e+00 5.7758099999999999e+00
-5.7758099999999999e+00 5.7758099999999999e+00
-5.7758099999999999e+00 5.7758099999999999e+00
ITEM: ATOMS id mol type x y z 
1 1 1 2.26264 -4.85371 2.29888 
2 1 1 1.92041 -4.12583 2.84914 
3 1 1 1.59231 -3.61912 3.56617 
4 1 1 2.21907 -3.44856 4.23935 
5 1 1 1.84003 -3.76128 5.10697 
6 1 1 1.39949 -3.64304 -5.58418 
7 1 1 2.09318 -3.75903 -4.9489 
8 1 1 2.3545 -4.26504 -4.20477 
9 1 1 2.2609 -4.9944 -4.76297 
10 1 1 2.95189 -5.55037 -4.4674 
11 1 1 3.09988 5.33041 -3.81541 
12 1 1 2.91956 4.39755 -3.80246 
13 1 1 2.01007 4.2726 -3.53487 
14 1 1 2.33237 4.82694 -2.77975 
15 1 1 3.05542 5.36665 -2.4974 
16 1 1 3.71761 -5.49293 -2.55597 
17 1 1 4.38741 -5.04351 -3.13496 
18 1 1 4.73009 -4.42576 -2.47583 
19 1 1 5.0475 -5.11151 -1.85169 
20 1 1 -5.65256 -5.41299 -2.12847 
21 1 1 -5.12894 -5.03443 -2.85289 
22 1 1 -4.5214 -5.68707 -3.25988 
23 1 1 -4.91811 5.17703 -3.81812 
24 1 1 -5.10553 4.26706 -3.66581 
25 1 1 -4.8346 3.74241 -2.90013 
26 1 1 -5.22886 4.25201 -2.17424 
27 1 1 5.56067 3.81134 -1.80428 
28 1 1 4.73418 3.55764 -1.43412 
29 1 1 3.85183 3.64988 -1.1634 
30 1 1 3.76965 2.68414 -1.30967 
ITEM: TIMESTEP
11000
ITEM: NUMBER OF ATOMS
30
ITEM: BOX BOUNDS pp pp pp
-5.7758099999999999e+00 5.7758099999999999e+00
-5.7758099999999999e+00 5.7758099999999999e+00
-5.7758099999999999e+00 5.7758099999999999e+00
ITEM: ATOMS id mol type x y z 
1 1 1 2.52253 -4.71374 2.53639 
2 1 1 1.89172 -4.02739 2.52426 
3 1 1 1.30691 -3.5876 3.11152 
4 1 1 1.95387 -3.25993 3.69987 
5 1 1 1.94771 -3.86626 4.40677 
6 1 1 2.1732 -3.66426 5.337 
7 1 1 1.75111 -4.22958 -5.6094 
8 1 1 1.76808 -4.35087 -4.61392 
9 1 1 2.34793 -5.04542 -4.24523 
10 1 1 2.89298 5.7648 -4.5601 
11 1 1 3.01187 4.85159 -4.25711 
12 1 1 2.244 4.27801 -3.96487 
13 1 1 1.87252 5.13609 -3.67565 
14 1 1 2.23862 5.0479 -2.79599 
15 1 1 2.91324 5.74227 -2.73806 
16 1 1 3.83315 -5.63961 -2.49123 
17 1 1 4.35446 -4.96259 -2.91423 
18 1 1 4.69456 -4.62348 -2.09734 
19 1 1 5.23826 -5.34979 -1.76209 
20 1 1 5.61779 -5.41861 -2.71265 
21 1 1 -5.37346 -5.0322 -3.36802 
22 1 1 -5.43502 5.67211 -3.79078 
23 1 1 -4.98727 4.82695 -4.01976 
24 1 1 -4.40054 4.02251 -3.89847 
25 1 1 -4.74974 3.53965 -3.10945 
26 1 1 -5.08782 4.12722 -2.41318 
27 1 1 5.65719 3.90592 -1.96412 
28 1 1 4.98255 3.29892 -1.71082 
29 1 1 4.11466 2.93322 -1.75803 
30 1 1 3.84788 2.33604 -2.46801 
ITEM: TIMESTEP
12000
ITEM: NUMBER OF ATOMS
30
ITEM: BOX BOUNDS pp pp pp
-5.7758099999999999e+00 5.7758099999999999e+00
-5.7758099999999999e+00 5.7758099999999999e+00
-5.7758099999999999e+00 5.7758099999999999e+00
ITEM: ATOMS id mol type x y z 
1 1 1 1.89166 -4.52023 2.42658 
2 1 1 1.98958 -3.56764 2.38899 
3 1 1 1.43264 -3.14872 3.05115 
4 1 1 1.52842 -3.56951 3.92209 
5 1 1 0.971071 -4.09645 4.46954 
6 1 1 1.34109 -4.36499 5.34375 
7 1 1 1.42388 -3.85598 -5.42969 
8 1 1 1.88133 -4.48954 -4.88249 
9 1 1 2.36214 -5.20823 -4.39972 
10 1 1 3.25996 -5.47421 -4.30997 
11 1 1 3.30668 5.18562 -4.50759 
12 1 1 2.56052 4.80649 -4.02807 
13 1 1 1.67118 5.108 -3.75995 
14 1 1 1.50709 5.22888 -2.81814 
15 1 1 2.37903 5.61733 -2.8284 
16 1 1 3.31784 5.52358 -2.79495 
17 1 1 3.61521 -5.11687 -2.93036 
18 1 1 3.88974 -4.53066 -2.22597 
19 1 1 4.85564 -4.59411 -2.02451 
20 1 1 5.12428 -5.22898 -2.75475 
21 1 1 -5.70071 5.79468 -3.12692 
22 1 1 -5.32101 -5.46459 -3.96359 
23 1 1 -4.82954 5.26557 -4.15945 
24 1 1 -4.31587 4.45853 -4.26229 
25 1 1 -4.40326 3.93851 -3.40851 
26 1 1 -5.05295 3.73377 -2.71067 
27 1 1 5.72494 3.74665 -2.05386 
28 1 1 4.95344 3.56265 -1.46888 
29 1 1 4.0657 3.19827 -1.41417 
30 1 1 3.73167 2.28159 -1.49188 
ITEM: TIMESTEP
13000
ITEM: NUMBER OF ATOMS
30
ITEM: BOX BOUNDS pp pp pp
-5.7758099999999999e+00 5.7758099999999999e+00
-5.7758099999999999e+00 5.7758099999999999e+00
-5.7758099999999999e+00 5.7758099999999999e+00
ITEM: ATOMS id mol type x y z 
1 1 1 1.66011 -4.28984 2.14029 
2 1 1 1.14546 -3.5045 2.28526 
3 1 1 0.713832 -3.55606 3.17795 
4 1 1 1.42202 -3.50574 3.8406 
5 1 1 1.28255 -3.71499 4.76231 
6 1 1 1.25888 -4.18049 5.56752 
7 1 1 1.8672 -3.86879 -5.27631 
8 1 1 2.26779 -4.68083 -4.99863 
9 1 1 2.1126 -5.37804 -4.42037 
10 1 1 3.05731 -5.45151 -4.61416 
11 1 1 3.20073 5.17409 -4.4405 
12 1 1 2.65684 4.87923 -3.69461 
13 1 1 1.73933 4.99194 -3.46031 
14 1 1 2.09312 5.45697 -2.74673 
15 1 1 2.82695 -5.56871 -2.56551 
16 1 1 3.66992 -5.47023 -2.98734 
17 1 1 4.00044 -4.58089 -3.06946 
18 1 1 4.75057 -4.60426 -2.52427 
19 1 1 5.17301 -5.23729 -1.99554 
20 1 1 5.24276 -5.70679 -2.8039 
21 1 1 -5.47172 -5.64174 -3.19689 
22 1 1 -4.9548 -5.27723 -3.88078 
23 1 1 -4.3682 5.64042 -4.31983 
24 1 1 -4.30527 5.04936 -3.5895 
25 1 1 -4.22735 4.05606 -3.43074 
26 1 1 -4.98831 3.88859 -2.84568 
27 1 1 -5.62477 3.62444 -2.1686 
28 1 1 5.18354 3.16473 -1.71555 
29 1 1 4.30716 2.95296 -1.3948 
30 1 1 3.58874 2.44994 -1.06935 
ITEM: TIMESTEP
14000
ITEM: NUMBER OF ATOMS
30
ITEM: BOX BOUNDS pp pp pp
-5.7758099999999999e+00 5.7758099999999999e+00
-5.7758099999999999e+00 5.7758099999999999e+00
-5.7758099999999999e+00 5.7758099999999999e+00
ITEM: ATOMS id mol type x y z 
1 1 1 1.75124 -3.6903 1.90347 
2 1 1 0.875637 -3.37815 2.09261 
3 1 1 0.535379 -2.62131 2.60803 
4 1 1 0.520293 -2.90873 3.52149 
5 1 1 0.914641 -3.1443 4.35653 
6 1 1 1.3036 -3.7013 5.01873 
7 1 1 1.26363 -3.73658 -5.58423 
8 1 1 1.63764 -4.48875 -5.17018 
9 1 1 1.79015 -5.3896 -4.83032 
10 1 1 2.54477 5.6453 -5.16749 
11 1 1 3.12112 4.95764 -4.72924 
12 1 1 2.48498 4.48065 -4.11426 
13 1 1 2.7944 3.97504 -3.35067 
14 1 1 2.80094 4.5149 -2.52133 
15 1 1 3.50427 5.17025 -2.61929 
16 1 1 3.41185 -5.48482 -2.39929 
17 1 1 3.99761 -4.7697 -2.57414 
18 1 1 4.62557 -4.78435 -1.85967 
19 1 1 4.88432 -5.66617 -1.66558 
20 1 1 5.383 5.61086 -2.43476 
21 1 1 -5.75271 -5.71277 -3.25378 
22 1 1 -4.90994 -5.3135 -3.44181 
23 1 1 -4.60239 5.52637 -4.03139 
24 1 1 -4.369 4.6219 -3.89634 
25 1 1 -4.41852 4.03259 -3.1457 
26 1 1 -5.32916 3.92724 -2.81716 
27 1 1 5.6672 3.59486 -2.0966 
28 1 1 5.02787 3.01688 -1.76519 
29 1 1 4.33395 2.37631 -1.84108 
30 1 1 3.54793 2.07845 -1.28397 
ITEM: TIMESTEP
15000
ITEM: NUMBER OF ATOMS
30
ITEM: BOX BOUNDS pp pp pp
-5.7758099999999999e+00 5.7758099999999999e+00
-5.7758099999999999e+00 5.7758099999999999e+00
-5.7758099999999999e+00 5.7758099999999999e+00
ITEM: ATOMS id mol type x y z 
1 1 1 1.70061 -3.18643 2.43087 
2 1 1 0.748115 -3.13102 2.41559 
3 1 1 0.568692 -2.7316 3.24061 
4 1 1 0.368275 -3.43714 3.86367 
5 1 1 0.625159 -4.04322 4.55762 
6 1 1 1.32274 -3.92651 5.19088 
7 1 1 1.15944 -4.20046 -5.48031 
8 1 1 1.54597 -4.37482 -4.62061 
9 1 1 2.01601 -4.93239 -5.23965 
10 1 1 2.69406 -5.63684 -5.314 
11 1 1 3.18825 5.19385 -4.93936 
12 1 1 3.24053 4.41236 -4.41898 
13 1 1 2.85541 4.32946 -3.55227 
14 1 1 3.08658 4.8449 -2.76874 
15 1 1 2.74877 5.52305 -2.21693 
16 1 1 2.93087 -5.07956 -2.36134 
17 1 1 3.88857 -4.84823 -2.3245 
18 1 1 4.37863 -4.47239 -1.57505 
19 1 1 4.73331 -5.4118 -1.63097 
20 1 1 5.15852 5.71013 -2.36203 
21 1 1 -5.7341 -5.54199 -3.02623 
22 1 1 -5.13716 -5.18575 -3.69262 
23 1 1 -4.34037 5.78229 -3.76446 
24 1 1 -4.74147 4.95904 -3.54651 
25 1 1 -5.19094 4.07293 -3.37971 
26 1 1 -5.56501 4.23755 -2.54511 
27 1 1 5.54339 3.39363 -2.30377 
28 1 1 4.80256 3.60763 -1.66555 
29 1 1 4.25271 2.82615 -1.52819 
30 1 1 3.54279 2.27214 -1.16505 
ITEM: TIMESTEP
16000
ITEM: NUMBER OF ATOMS
30
ITEM: BOX BOUNDS pp pp pp
-5.7758099999999999e+00 5.7758099999999999e+00
-5.7758099999999999e+00 5.7758099999999999e+00
-5.7758099999999999e+00 5.7758099999999999e+00
ITEM: ATOMS id mol type x y z 
1 1 1 1.36189 -3.53264 2.06873 
2 1 1 0.527252 -3.02876 2.26583 
3 1 1 0.106298 -2.60444 3.03463 
4 1 1 0.26999 -3.27004 3.68194 
5 1 1 0.81971 -3.44283 4.4281 
6 1 1 0.867862 -3.47656 5.39657 
7 1 1 1.02862 -4.1698 -5.49235 
8 1 1 1.5144 -4.7079 -4.85739 
9 1 1 2.45607 -4.85973 -5.01453 
10 1 1 2.41334 5.73567 -4.98889 
11 1 1 2.35771 5.11984 -4.23183 
12 1 1 3.05497 4.51625 -4.1414 
13 1 1 2.66112 4.53123 -3.27444 
14 1 1 3.23872 5.08148 -2.83008 
15 1 1 2.7933 -5.72859 -2.43216 
16 1 1 2.92787 -4.792 -2.45759 
17 1 1 3.59608 -4.41652 -1.87412 
18 1 1 4.51882 -4.68139 -1.9175 
19 1 1 4.57505 -5.54246 -1.46854 
20 1 1 5.28409 -5.64024 -2.09651 
21 1 1 -5.41144 5.6276 -2.44188 
22 1 1 -4.85324 -5.54218 -3.15532 
23 1 1 -4.4487 5.64544 -3.91449 
24 1 1 -4.8911 4.84189 -4.0737 
25 1 1 -5.21781 4.15198 -3.50101 
26 1 1 -5.42666 4.02551 -2.58226 
27 1 1 5.27297 3.73084 -2.25337 
28 1 1 4.75606 3.07534 -1.78254 
29 1 1 3.91584 3.17004 -2.23714 
30 1 1 3.65013 2.24137 -2.26525 
ITEM: TIMESTEP
17000
ITEM: NUMBER OF ATOMS
30
ITEM: BOX BOUNDS pp pp pp
-5.7758099999999999e+00 5.7758099999999999e+00
-5.7758099999999999e+00 5.7758099999999999e+00
-5.7758099999999999e+00 5.7758099999999999e+00
ITEM: ATOMS id mol type x y z 
1 1 1 1.25106 -3.45522 1.98431 
2 1 1 0.97351 -2.87793 2.72288 
3 1 1 0.882717 -2.57727 3.6559 
4 1 1 0.27999 -3.24341 4.03932 
5 1 1 0.59671 -3.13624 4.9384 
6 1 1 0.730375 -3.84085 5.64916 
7 1 1 1.61677 -4.14511 5.49591 
8 1 1 1.61029 -4.73574 -5.27416 
9 1 1 1.75381 -5.65181 -4.91134 
10 1 1 1.80728 5.01748 -5.24748 
11 1 1 2.67204 4.82494 -4.73528 
12 1 1 3.01749 4.37655 -3.95437 
13 1 1 3.04432 4.27511 -2.96647 
14 1 1 3.25894 5.02365 -2.38411 
15 1 1 3.50883 -5.63909 -2.53082 
16 1 1 3.07361 -4.98448 -1.94999 
17 1 1 3.36809 -4.23234 -1.48024 
18 1 1 4.20192 -4.71457 -1.4704 
19 1 1 4.87243 -5.37143 -1.48575 
20 1 1 5.48603 5.72727 -2.14943 
21 1 1 -5.29825 5.76594 -2.73602 
22 1 1 -4.4761 5.27163 -2.63369 
23 1 1 -4.07164 5.36858 -3.52725 
24 1 1 -4.63632 4.66233 -3.7883 
25 1 1 -5.204 3.96689 -3.4633 
26 1 1 -5.31728 4.00377 -2.55096 
27 1 1 5.30409 3.97968 -2.41393 
28 1 1 4.76403 3.46754 -1.77215 
29 1 1 4.36354 2.76335 -2.19556 
30 1 1 4.08805 1.89766 -2.43813 
ITEM: TIMESTEP
18000
ITEM: NUMBER OF ATOMS
30
ITEM: BOX BOUNDS pp pp pp
-5.7758099999999999e+00 5.7758099999999999e+00
-5.7758099999999999e+00 5.7758099999999999e+00
-5.7758099999999999e+00 5.7758099999999999e+00
ITEM: ATOMS id mol type x y z 
1 1 1 1.47473 -3.45021 1.73078 
2 1 1 1.29333 -2.75782 2.36286 
3 1 1 0.656557 -2.40326 3.05372 
4 1 1 0.482628 -2.68396 3.94871 
5 1 1 0.593729 -2.89468 4.87707 
6 1 1 0.448536 -3.51988 5.57742 
7 1 1 1.20753 -4.13997 -5.6215 
8 1 1 1.40286 -4.77632 -4.86565 
9 1 1 2.078 -5.2406 -4.39213 
10 1 1 2.63127 5.59506 -4.77712 
11 1 1 3.32451 5.347 -4.16857 
12 1 1 3.65144 4.64556 -3.56574 
13 1 1 3.52022 4.65097 -2.60622 
14 1 1 3.84427 5.26011 -1.97447 
15 1 1 4.03378 -5.55823 -2.65947 
16 1 1 3.76339 -4.66528 -2.56881 
17 1 1 3.88412 -4.23417 -1.75376 
18 1 1 4.40745 -4.57137 -1.00367 
19 1 1 5.12529 -4.94089 -1.5441 
20 1 1 5.73173 -4.94571 -2.27692 
21 1 1 -5.17785 -5.15936 -2.96955 
22 1 1 -4.52527 5.7386 -2.78157 
23 1 1 -4.39621 5.57723 -3.7284 
24 1 1 -4.85395 4.92181 -4.27134 
25 1 1 -5.49311 4.39034 -3.70421 
26 1 1 5.70626 4.52151 -2.78831 
27 1 1 5.21641 4.16084 -2.06601 
28 1 1 4.80678 3.42149 -1.71044 
29 1 1 4.77727 2.8775 -2.47895 
30 1 1 4.36246 2.14667 -2.01644 
ITEM: TIMESTEP
19000
ITEM: NUMBER OF ATOMS
30
ITEM: BOX BOUNDS pp pp pp
-5.7758099999999999e+00 5.7758099999999999e+00
-5.7758099999999999e+00 5.7758099999999999e+00
-5.7758099999999999e+00 5.7758099999999999e+00
ITEM: ATOMS id mol type x y z 
1 1 1 1.42349 -3.36101 1.4798 
2 1 1 0.87878 -3.30349 2.29463 
3 1 1 0.90913 -3.46826 3.23513 
4 1 1 0.390791 -2.98744 3.91593 
5 1 1 0.477567 -3.31311 4.82269 
6 1 1 0.888312 -3.82112 5.48202 
7 1 1 1.08843 -4.44929 -5.35306 
8 1 1 1.814 -4.79937 -4.83365 
9 1 1 1.89362 -5.74638 -4.57062 
10 1 1 2.8648 -5.7499 -4.54221 
11 1 1 3.27545 4.92641 -4.4168 
12 1 1 3.76326 4.15344 -4.19561 
13 1 1 4.26481 4.46376 -3.43278 
14 1 1 4.3123 5.2824 -2.90984 
15 1 1 4.28016 -5.45455 -3.32594 
16 1 1 4.1389 -4.57369 -2.99851 
17 1 1 3.60838 -4.64267 -2.16336 
18 1 1 4.26846 -4.49453 -1.47745 
19 1 1 4.64821 -5.34026 -1.38612 
20 1 1 5.56482 -5.26218 -1.75251 
21 1 1 -5.45367 -5.13671 -2.52736 
22 1 1 -4.93233 -5.16545 -3.33813 
23 1 1 -4.22719 -5.60851 -3.88662 
24 1 1 -4.30959 4.99191 -3.66268 
25 1 1 -5.06469 4.36931 -3.5495 
26 1 1 -5.12328 4.4621 -2.62633 
27 1 1 5.51907 4.09326 -2.56583 
28 1 1 5.10243 3.32369 -2.29771 
29 1 1 4.85437 2.41437 -2.63267 
30 1 1 4.27715 1.77029 -2.26685 
ITEM: TIMESTEP
20000
ITEM: NUMBER OF ATOMS
30
ITEM: BOX BOUNDS pp pp pp
-5.7758099999999999e+00 5.7758099999999999e+00
-5.7758099999999999e+00 5.7758099999999999e+00
-5.7758099999999999e+00 5.7758099999999999e+00
ITEM: ATOMS id mol type x y z 
1 1 1 1.04071 -3.91924 1.66774 
2 1 1 0.89588 -3.18476 2.2557 
3 1 1 1.03853 -3.44035 3.12574 
4 1 1 0.604924 -2.95042 3.84024 
5 1 1 0.945826 -3.1729 4.75029 
6 1 1 1.00385 -3.47654 5.67377 
7 1 1 1.69615 -4.11138 -5.6733 
8 1 1 2.1792 -4.91978 -5.42993 
9 1 1 1.87516 -5.44004 -4.63381 
10 1 1 2.34717 5.31932 -4.72443 
11 1 1 2.83504 4.51068 -4.30229 
12 1 1 3.56999 3.87869 -4.19522 
13 1 1 4.31397 4.38513 -3.76529 
14 1 1 4.5783 5.21786 -3.21839 
15 1 1 3.91815 -5.66687 -3.41853 
16 1 1 4.20607 -4.74637 -3.61168 
17 1 1 4.19366 -4.34536 -2.75805 
18 1 1 4.05289 -4.81894 -1.92608 
19 1 1 4.95255 -5.16859 -1.87789 
20 1 1 -5.67078 -5.29383 -1.54706 
21 1 1 -5.12618 -4.70213 -2.04118 
22 1 1 -4.56923 -4.73325 -2.80943 
23 1 1 -4.79277 -5.36923 -3.53189 
24 1 1 -4.56706 5.48311 -4.13866 
25 1 1 -5.1112 4.69779 -4.04021 
26 1 1 -5.18383 4.48815 -3.07255 
27 1 1 -5.56473 3.65117 -2.91771 
28 1 1 5.13785 3.63655 -2.37347 
29 1 1 5.05322 2.74692 -2.78909 
30 1 1 4.94534 1.81662 -3.00055 
ITEM: TIMESTEP
21000
ITEM: NUMBER OF ATOMS
30
ITEM: BOX BOUNDS pp pp pp
-5.7758099999999999e+00 5.7758099999999999e+00
-5.7758099999999999e+00 5.7758099999999999e+00
-5.7758099999999999e+00 5.7758099999999999e+00
ITEM: ATOMS id mol type x y z 
1 1 1 1.7244 -4.28586 1.5164 
2 1 1 1.2781 -3.55301 1.92049 
3 1 1 0.976821 -3.73412 2.81399 
4 1 1 0.693918 -3.0213 3.37882 
5 1 1 1.02584 -3.30826 4.21054 
6 1 1 1.0012 -3.36934 5.18574 
7 1 1 1.66525 -3.88122 5.62381 
8 1 1 1.92007 -4.57176 -5.24996 
9 1 1 1.8582 -5.52493 -4.95521 
10 1 1 1.71693 5.11074 -4.72763 
11 1 1 2.4769 4.62295 -4.54616 
12 1 1 3.32358 4.31538 -4.24001 
13 1 1 4.04653 4.38026 -3.60811 
14 1 1 4.55109 5.11708 -3.35394 
15 1 1 4.33335 -5.54193 -3.71127 
16 1 1 4.33017 -4.65688 -3.34386 
17 1 1 3.89645 -3.91002 -2.99828 
18 1 1 3.9632 -4.23766 -2.03045 
19 1 1 4.63707 -4.89089 -1.75288 
20 1 1 5.51615 -5.19948 -1.86321 
21 1 1 -5.17347 -4.98053 -2.20919 
22 1 1 -4.4422 -5.23497 -2.78755 
23 1 1 -4.79078 -5.36523 -3.65144 
24 1 1 -4.74319 5.40488 -4.19788 
25 1 1 -4.95791 4.71296 -3.58804 
26 1 1 -5.59499 4.82137 -2.93066 
27 1 1 5.69696 3.90297 -2.78465 
28 1 1 4.84844 3.51312 -2.97947 
29 1 1 4.3922 2.83888 -3.39808 
30 1 1 4.33533 1.92363 -3.17585 
ITEM: TIMESTEP
22000
ITEM: NUMBER OF ATOMS
30
ITEM: BOX BOUNDS pp pp pp
-5.7758099999999999e+00 5.7758099999999999e+00
-5.7758099999999999e+00 5.7758099999999999e+00
-5.7758099999999999e+00 5.7758099999999999e+00
ITEM: ATOMS id mol type x y z 
1 1 1 0.996795 -4.36595 1.63717 
2 1 1 1.00413 -3.41468 1.77151 
3 1 1 0.803115 -3.31483 2.71288 
4 1 1 1.27498 -3.31735 3.53025 
5 1 1 1.5411 -3.59325 4.39168 
6 1 1 1.71643 -3.35347 5.25732 
7 1 1 1.71326 -4.13422 -5.73212 
8 1 1 1.35258 -4.87353 -5.2904 
9 1 1 1.39965 -5.76437 -4.91727 
10 1 1 1.92654 5.04524 -4.72825 
11 1 1 2.61466 4.34512 -4.74884 
12 1 1 3.39842 4.8468 -4.71662 
13 1 1 4.18724 4.74619 -4.15296 
14 1 1 4.5177 5.47551 -3.62304 
15 1 1 4.64236 -5.19166 -3.99711 
16 1 1 4.17215 -4.49183 -3.43655 
17 1 1 3.48768 -4.11418 -2.88341 
18 1 1 4.03353 -3.90708 -2.10798 
19 1 1 4.73495 -4.40519 -1.7444 
20 1 1 5.61876 -4.64153 -1.99085 
21 1 1 -5.20648 -5.07903 -2.44121 
22 1 1 -4.59828 -5.38619 -3.13137 
23 1 1 -4.90729 -5.56297 -4.06598 
24 1 1 -5.41624 5.52838 -4.73696 
25 1 1 -5.28078 4.6561 -4.26649 
26 1 1 -5.52386 4.5928 -3.37412 
27 1 1 5.27689 3.97298 -3.25795 
28 1 1 5.37043 2.96824 -3.25061 
29 1 1 4.83248 2.18862 -3.39802 
30 1 1 4.22327 2.03731 -2.68707 
ITEM: TIMESTEP
23000
ITEM: NUMBER OF ATOMS
30
ITEM: BOX BOUNDS pp pp pp
-5.7758099999999999e+00 5.7758099999999999e+00
-5.7758099999999999e+00 5.7758099999999999e+00
-5.7758099999999999e+00 5.7758099999999999e+00
ITEM: ATOMS id mol type x y z 
1 1 1 1.0982 -4.19791 1.86074 
2 1 1 1.00212 -3.3075 2.22609 
3 1 1 0.999587 -3.15568 3.17638 
4 1 1 1.23029 -2.93863 4.04511 
5 1 1 1.37842 -3.39037 4.90435 
6 1 1 1.88495 -3.51693 5.70524 
7 1 1 1.9118 -4.3524 -5.27151 
8 1 1 1.80521 -5.2768 -5.12224 
9 1 1 1.61938 5.66991 -4.39095 
10 1 1 1.70778 4.74769 -4.26694 
11 1 1 2.3773 4.12269 -4.60045 
12 1 1 3.12234 4.62631 -4.75889 
13 1 1 3.59712 4.86919 -3.96115 
14 1 1 4.20269 5.48322 -4.3756 
15 1 1 4.58532 -5.50714 -3.72994 
16 1 1 4.08458 -4.70068 -3.80016 
17 1 1 3.58476 -4.22989 -3.08903 
18 1 1 4.31043 -4.11151 -2.48422 
19 1 1 5.08274 -4.49817 -2.03112 
20 1 1 -5.58314 -4.47883 -2.35397 
21 1 1 -4.92719 -4.60963 -3.00291 
22 1 1 -4.41725 -5.35355 -3.40171 
23 1 1 -4.71765 5.63998 -4.17221 
24 1 1 -4.88361 5.09741 -4.95554 
25 1 1 -5.67221 4.69712 -4.56321 
26 1 1 5.60626 4.43059 -3.66607 
27 1 1 5.15866 4.31909 -2.75015 
28 1 1 4.98352 3.50673 -3.14074 
29 1 1 4.56496 2.70555 -3.35146 
30 1 1 4.3123 2.26649 -2.54471 
ITEM: TIMESTEP
24000
ITEM: NUMBER OF ATOMS
30
ITEM: BOX BOUNDS pp pp pp
-5.7758099999999999e+00 5.7758099999999999e+00
-5.7758099999999999e+00 5.7758099999999999e+00
-5.7758099999999999e+00 5.7758099999999999e+00
ITEM: ATOMS id mol type x y z 
1 1 1 1.32762 -4.45954 2.64047 
2 1 1 1.01358 -3.55179 2.7976 
3 1 1 1.16902 -3.62697 3.74424 
4 1 1 1.52044 -2.99933 4.37495 