Monodisperse Brush (types 1, 2, 3) with grafted head monomer (type 1) and free end monomer (type 3) on top of wall particles (type 4) and a nanoparticle (type 5)

2101 atoms
1740 bonds

5 atom types
1 bond types

-7.87500 7.87500 xlo xhi
-9.09325 9.09325 ylo yhi
-3.00000 40.00000 zlo zhi

Masses

1 1.00
2 1.00
3 1.00
4 1.00
5 1.00

Atoms

1 1 1 -7.48125 -6.81994 1.12246
2 1 2 -7.48125 -6.81994 2.12246
3 1 2 -7.48125 -6.81994 3.12246
4 1 2 -7.48125 -6.81994 4.12246
5 1 2 -7.48125 -6.81994 5.12246
6 1 2 -7.48125 -6.81994 6.12246
7 1 2 -7.48125 -6.81994 7.12246
8 1 2 -7.48125 -6.81994 8.12246
9 1 2 -7.48125 -6.81994 9.12246
10 1 2 -7.48125 -6.81994 10.12246
11 1 2 -7.48125 -6.81994 11.12246
12 1 2 -7.48125 -6.81994 12.12246
13 1 2 -7.48125 -6.81994 13.12246
14 1 2 -7.48125 -6.81994 14.12246
15 1 2 -7.48125 -6.81994 15.12246
16 1 2 -7.48125 -6.81994 16.12246
17 1 2 -7.48125 -6.81994 17.12246
18 1 2 -7.48125 -6.81994 18.12246
19 1 2 -7.48125 -6.81994 19.12246
20 1 2 -7.48125 -6.81994 20.12246
21 1 2 -7.48125 -6.81994 21.12246
22 1 2 -7.48125 -6.81994 22.12246
23 1 2 -7.48125 -6.81994 23.12246
24 1 2 -7.48125 -6.81994 24.12246
25 1 2 -7.48125 -6.81994 25.12246
26 1 2 -7.48125 -6.81994 26.12246
27 1 2 -7.48125 -6.81994 27.12246
28 1 2 -7.48125 -6.81994 28.12246
29 1 2 -7.48125 -6.81994 29.12246
30 1 3 -7.48125 -6.81994 30.12246
31 2 1 -5.90625 -8.33548 1.12246
32 2 2 -5.90625 -8.33548 2.12246
33 2 2 -5.90625 -8.33548 3.12246
34 2 2 -5.90625 -8.33548 4.12246
35 2 2 -5.90625 -8.33548 5.12246
36 2 2 -5.90625 -8.33548 6.12246
37 2 2 -5.90625 -8.33548 7.12246
38 2 2 -5.90625 -8.33548 8.12246
39 2 2 -5.90625 -8.33548 9.12246
40 2 2 -5.90625 -8.33548 10.12246
41 2 2 -5.90625 -8.33548 11.12246
42 2 2 -5.90625 -8.33548 12.12246
43 2 2 -5.90625 -8.33548 13.12246
44 2 2 -5.90625 -8.33548 14.12246
45 2 2 -5.90625 -8.33548 15.12246
46 2 2 -5.90625 -8.33548 16.12246
47 2 2 -5.90625 -8.33548 17.12246
48 2 2 -5.90625 -8.33548 18.12246
49 2 2 -5.90625 -8.33548 19.12246
50 2 2 -5.90625 -8.33548 20.12246
51 2 2 -5.90625 -8.33548 21.12246
52 2 2 -5.90625 -8.33548 22.12246
53 2 2 -5.90625 -8.33548 23.12246
54 2 2 -5.90625 -8.33548 24.12246
55 2 2 -5.90625 -8.33548 25.12246
56 2 2 -5.90625 -8.33548 26.12246
57 2 2 -5.90625 -8.33548 27.12246
58 2 2 -5.90625 -8.33548 28.12246
59 2 2 -5.90625 -8.33548 29.12246
60 2 3 -5.90625 -8.33548 30.12246
61 3 1 -4.33125 -6.81994 1.12246
62 3 2 -4.33125 -6.81994 2.12246
63 3 2 -4.33125 -6.81994 3.12246
64 3 2 -4.33125 -6.81994 4.12246
65 3 2 -4.33125 -6.81994 5.12246
66 3 2 -4.33125 -6.81994 6.12246
67 3 2 -4.33125 -6.81994 7.12246
68 3 2 -4.33125 -6.81994 8.12246
69 3 2 -4.33125 -6.81994 9.12246
70 3 2 -4.33125 -6.81994 10.12246
71 3 2 -4.33125 -6.81994 11.12246
72 3 2 -4.33125 -6.81994 12.12246
73 3 2 -4.33125 -6.81994 13.12246
74 3 2 -4.33125 -6.81994 14.12246
75 3 2 -4.33125 -6.81994 15.12246
76 3 2 -4.33125 -6.81994 16.12246
77 3 2 -4.33125 -6.81994 17.12246
78 3 2 -4.33125 -6.81994 18.12246
79 3 2 -4.33125 -6.81994 19.12246
80 3 2 -4.33125 -6.81994 20.12246
81 3 2 -4.33125 -6.81994 21.12246
82 3 2 -4.33125 -6.81994 22.12246
83 3 2 -4.33125 -6.81994 23.12246
84 3 2 -4.33125 -6.81994 24.12246
85 3 2 -4.33125 -6.81994 25.12246
86 3 2 -4.33125 -6.81994 26.12246
87 3 2 -4.33125 -6.81994 27.12246
88 3 2 -4.33125 -6.81994 28.12246
89 3 2 -4.33125 -6.81994 29.12246
90 3 3 -4.33125 -6.81994 30.12246
91 4 1 -2.75625 -8.33548 1.12246
92 4 2 -2.75625 -8.33548 2.12246
93 4 2 -2.75625 -8.33548 3.12246
94 4 2 -2.75625 -8.33548 4.12246
95 4 2 -2.75625 -8.33548 5.12246
96 4 2 -2.75625 -8.33548 6.12246
97 4 2 -2.75625 -8.33548 7.12246
98 4 2 -2.75625 -8.33548 8.12246
99 4 2 -2.75625 -8.33548 9.12246
100 4 2 -2.75625 -8.33548 10.12246
101 4 2 -2.75625 -8.33548 11.12246
102 4 2 -2.75625 -8.33548 12.12246
103 4 2 -2.75625 -8.33548 13.12246
104 4 2 -2.75625 -8.33548 14.12246
105 4 2 -2.75625 -8.33548 15.12246
106 4 2 -2.75625 -8.33548 16.12246
107 4 2 -2.75625 -8.33548 17.12246
108 4 2 -2.75625 -8.33548 18.12246
109 4 2 -2.75625 -8.33548 19.12246
110 4 2 -2.75625 -8.33548 20.12246
111 4 2 -2.75625 -8.33548 21.12246
112 4 2 -2.75625 -8.33548 22.12246
113 4 2 -2.75625 -8.33548 23.12246
114 4 2 -2.75625 -8.33548 24.12246
115 4 2 -2.75625 -8.33548 25.12246
116 4 2 -2.75625 -8.33548 26.12246
117 4 2 -2.75625 -8.33548 27.12246
118 4 2 -2.75625 -8.33548 28.12246
119 4 2 -2.75625 -8.33548 29.12246
120 4 3 -2.75625 -8.33548 30.12246
121 5 1 -1.18125 -6.81994 1.12246
122 5 2 -1.18125 -6.81994 2.12246
123 5 2 -1.18125 -6.81994 3.12246
124 5 2 -1.18125 -6.81994 4.12246
125 5 2 -1.18125 -6.81994 5.12246
126 5 2 -1.18125 -6.81994 6.12246
127 5 2 -1.18125 -6.81994 7.12246
128 5 2 -1.18125 -6.81994 8.12246
129 5 2 -1.18125 -6.81994 9.12246
130 5 2 -1.18125 -6.81994 10.12246
131 5 2 -1.18125 -6.81994 11.12246
132 5 2 -1.18125 -6.81994 12.12246
133 5 2 -1.18125 -6.81994 13.12246
134 5 2 -1.18125 -6.81994 14.12246
135 5 2 -1.18125 -6.81994 15.12246
136 5 2 -1.18125 -6.81994 16.12246
137 5 2 -1.18125 -6.81994 17.12246
138 5 2 -1.18125 -6.81994 18.12246
139 5 2 -1.18125 -6.81994 19.12246
140 5 2 -1.18125 -6.81994 20.12246
141 5 2 -1.18125 -6.81994 21.12246
142 5 2 -1.18125 -6.81994 22.12246
143 5 2 -1.18125 -6.81994 23.12246
144 5 2 -1.18125 -6.81994 24.12246
145 5 2 -1.18125 -6.81994 25.12246
146 5 2 -1.18125 -6.81994 26.12246
147 5 2 -1.18125 -6.81994 27.12246
148 5 2 -1.18125 -6.81994 28.12246
149 5 2 -1.18125 -6.81994 29.12246
150 5 3 -1.18125 -6.81994 30.12246
151 6 1 0.39375 -8.33548 1.12246
152 6 2 0.39375 -8.33548 2.12246
153 6 2 0.39375 -8.33548 3.12246
154 6 2 0.39375 -8.33548 4.12246
155 6 2 0.39375 -8.33548 5.12246
156 6 2 0.39375 -8.33548 6.12246
157 6 2 0.39375 -8.33548 7.12246
158 6 2 0.39375 -8.33548 8.12246
159 6 2 0.39375 -8.33548 9.12246
160 6 2 0.39375 -8.33548 10.12246
161 6 2 0.39375 -8.33548 11.12246
162 6 2 0.39375 -8.33548 12.12246
163 6 2 0.39375 -8.33548 13.12246
164 6 2 0.39375 -8.33548 14.12246
165 6 2 0.39375 -8.33548 15.12246
166 6 2 0.39375 -8.33548 16.12246
167 6 2 0.39375 -8.33548 17.12246
168 6 2 0.39375 -8.33548 18.12246
169 6 2 0.39375 -8.33548 19.12246
170 6 2 0.39375 -8.33548 20.12246
171 6 2 0.39375 -8.33548 21.12246
172 6 2 0.39375 -8.33548 22.12246
173 6 2 0.39375 -8.33548 23.12246
174 6 2 0.39375 -8.33548 24.12246
175 6 2 0.39375 -8.33548 25.12246
176 6 2 0.39375 -8.33548 26.12246
177 6 2 0.39375 -8.33548 27.12246
178 6 2 0.39375 -8.33548 28.12246
179 6 2 0.39375 -8.33548 29.12246
180 6 3 0.39375 -8.33548 30.12246
181 7 1 1.96875 -6.81994 1.12246
182 7 2 1.96875 -6.81994 2.12246
183 7 2 1.96875 -6.81994 3.12246
184 7 2 1.96875 -6.81994 4.12246
185 7 2 1.96875 -6.81994 5.12246
186 7 2 1.96875 -6.81994 6.12246
187 7 2 1.96875 -6.81994 7.12246
188 7 2 1.96875 -6.81994 8.12246
189 7 2 1.96875 -6.81994 9.12246
190 7 2 1.96875 -6.81994 10.12246
191 7 2 1.96875 -6.81994 11.12246
192 7 2 1.96875 -6.81994 12.12246
193 7 2 1.96875 -6.81994 13.12246
194 7 2 1.96875 -6.81994 14.12246
195 7 2 1.96875 -6.81994 15.12246
196 7 2 1.96875 -6.81994 16.12246
197 7 2 1.96875 -6.81994 17.12246
198 7 2 1.96875 -6.81994 18.12246
199 7 2 1.96875 -6.81994 19.12246
200 7 2 1.96875 -6.81994 20.12246
201 7 2 1.96875 -6.81994 21.12246
202 7 2 1.96875 -6.81994 22.12246
203 7 2 1.96875 -6.81994 23.12246
204 7 2 1.96875 -6.81994 24.12246
205 7 2 1.96875 -6.81994 25.12246
206 7 2 1.96875 -6.81994 26.12246
207 7 2 1.96875 -6.81994 27.12246
208 7 2 1.96875 -6.81994 28.12246
209 7 2 1.96875 -6.81994 29.12246
210 7 3 1.96875 -6.81994 30.12246
211 8 1 3.54375 -8.33548 1.12246
212 8 2 3.54375 -8.33548 2.12246
213 8 2 3.54375 -8.33548 3.12246
214 8 2 3.54375 -8.33548 4.12246
215 8 2 3.54375 -8.33548 5.12246
216 8 2 3.54375 -8.33548 6.12246
217 8 2 3.54375 -8.33548 7.12246
218 8 2 3.54375 -8.33548 8.12246
219 8 2 3.54375 -8.33548 9.12246
220 8 2 3.54375 -8.33548 10.12246
221 8 2 3.54375 -8.33548 11.12246
222 8 2 3.54375 -8.33548 12.12246
223 8 2 3.54375 -8.33548 13.12246
224 8 2 3.54375 -8.33548 14.12246
225 8 2 3.54375 -8.33548 15.12246
226 8 2 3.54375 -8.33548 16.12246
227 8 2 3.54375 -8.33548 17.12246
228 8 2 3.54375 -8.33548 18.12246
229 8 2 3.54375 -8.33548 19.12246
230 8 2 3.54375 -8.33548 20.12246
231 8 2 3.54375 -8.33548 21.12246
232 8 2 3.54375 -8.33548 22.12246
233 8 2 3.54375 -8.33548 23.12246
234 8 2 3.54375 -8.33548 24.12246
235 8 2 3.54375 -8.33548 25.12246
236 8 2 3.54375 -8.33548 26.12246
237 8 2 3.54375 -8.33548 27.12246
238 8 2 3.54375 -8.33548 28.12246
239 8 2 3.54375 -8.33548 29.12246
240 8 3 3.54375 -8.33548 30.12246
241 9 1 5.11875 -6.81994 1.12246
242 9 2 5.11875 -6.81994 2.12246
243 9 2 5.11875 -6.81994 3.12246
244 9 2 5.11875 -6.81994 4.12246
245 9 2 5.11875 -6.81994 5.12246
246 9 2 5.11875 -6.81994 6.12246
247 9 2 5.11875 -6.81994 7.12246
248 9 2 5.11875 -6.81994 8.12246
249 9 2 5.11875 -6.81994 9.12246
250 9 2 5.11875 -6.81994 10.12246
251 9 2 5.11875 -6.81994 11.12246
252 9 2 5.11875 -6.81994 12.12246
253 9 2 5.11875 -6.81994 13.12246
254 9 2 5.11875 -6.81994 14.12246
255 9 2 5.11875 -6.81994 15.12246
256 9 2 5.11875 -6.81994 16.12246
257 9 2 5.11875 -6.81994 17.12246
258 9 2 5.11875 -6.81994 18.12246
259 9 2 5.11875 -6.81994 19.12246
260 9 2 5.11875 -6.81994 20.12246
261 9 2 5.11875 -6.81994 21.12246
262 9 2 5.11875 -6.81994 22.12246
263 9 2 5.11875 -6.81994 23.12246
264 9 2 5.11875 -6.81994 24.12246
265 9 2 5.11875 -6.81994 25.12246
266 9 2 5.11875 -6.81994 26.12246
267 9 2 5.11875 -6.81994 27.12246
268 9 2 5.11875 -6.81994 28.12246
269 9 2 5.11875 -6.81994 29.12246
270 9 3 5.11875 -6.81994 30.12246
271 10 1 6.69375 -8.33548 1.12246
272 10 2 6.69375 -8.33548 2.12246
273 10 2 6.69375 -8.33548 3.12246
274 10 2 6.69375 -8.33548 4.12246
275 10 2 6.69375 -8.33548 5.12246
276 10 2 6.69375 -8.33548 6.12246
277 10 2 6.69375 -8.33548 7.12246
278 10 2 6.69375 -8.33548 8.12246
279 10 2 6.69375 -8.33548 9.12246
280 10 2 6.69375 -8.33548 10.12246
281 10 2 6.69375 -8.33548 11.12246
282 10 2 6.69375 -8.33548 12.12246
283 10 2 6.69375 -8.33548 13.12246
284 10 2 6.69375 -8.33548 14.12246
285 10 2 6.69375 -8.33548 15.12246
286 10 2 6.69375 -8.33548 16.12246
287 10 2 6.69375 -8.33548 17.12246
288 10 2 6.69375 -8.33548 18.12246
289 10 2 6.69375 -8.33548 19.12246
290 10 2 6.69375 -8.33548 20.12246
291 10 2 6.69375 -8.33548 21.12246
292 10 2 6.69375 -8.33548 22.12246
293 10 2 6.69375 -8.33548 23.12246
294 10 2 6.69375 -8.33548 24.12246
295 10 2 6.69375 -8.33548 25.12246
296 10 2 6.69375 -8.33548 26.12246
297 10 2 6.69375 -8.33548 27.12246
298 10 2 6.69375 -8.33548 28.12246
299 10 2 6.69375 -8.33548 29.12246
300 10 3 6.69375 -8.33548 30.12246
301 11 1 -7.48125 -3.78885 1.12246
302 11 2 -7.48125 -3.78885 2.12246
303 11 2 -7.48125 -3.78885 3.12246
304 11 2 -7.48125 -3.78885 4.12246
305 11 2 -7.48125 -3.78885 5.12246
306 11 2 -7.48125 -3.78885 6.12246
307 11 2 -7.48125 -3.78885 7.12246
308 11 2 -7.48125 -3.78885 8.12246
309 11 2 -7.48125 -3.78885 9.12246
310 11 2 -7.48125 -3.78885 10.12246
311 11 2 -7.48125 -3.78885 11.12246
312 11 2 -7.48125 -3.78885 12.12246
313 11 2 -7.48125 -3.78885 13.12246
314 11 2 -7.48125 -3.78885 14.12246
315 11 2 -7.48125 -3.78885 15.12246
316 11 2 -7.48125 -3.78885 16.12246
317 11 2 -7.48125 -3.78885 17.12246
318 11 2 -7.48125 -3.78885 18.12246
319 11 2 -7.48125 -3.78885 19.12246
320 11 2 -7.48125 -3.78885 20.12246
321 11 2 -7.48125 -3.78885 21.12246
322 11 2 -7.48125 -3.78885 22.12246
323 11 2 -7.48125 -3.78885 23.12246
324 11 2 -7.48125 -3.78885 24.12246
325 11 2 -7.48125 -3.78885 25.12246
326 11 2 -7.48125 -3.78885 26.12246
327 11 2 -7.48125 -3.78885 27.12246
328 11 2 -7.48125 -3.78885 28.12246
329 11 2 -7.48125 -3.78885 29.12246
330 11 3 -7.48125 -3.78885 30.12246
331 12 1 -5.90625 -5.30440 1.12246
332 12 2 -5.90625 -5.30440 2.12246
333 12 2 -5.90625 -5.30440 3.12246
334 12 2 -5.90625 -5.30440 4.12246
335 12 2 -5.90625 -5.30440 5.12246
336 12 2 -5.90625 -5.30440 6.12246
337 12 2 -5.90625 -5.30440 7.12246
338 12 2 -5.90625 -5.30440 8.12246
339 12 2 -5.90625 -5.30440 9.12246
340 12 2 -5.90625 -5.30440 10.12246
341 12 2 -5.90625 -5.30440 11.12246
342 12 2 -5.90625 -5.30440 12.12246
343 12 2 -5.90625 -5.30440 13.12246
344 12 2 -5.90625 -5.30440 14.12246
345 12 2 -5.90625 -5.30440 15.12246
346 12 2 -5.90625 -5.30440 16.12246
347 12 2 -5.90625 -5.30440 17.12246
348 12 2 -5.90625 -5.30440 18.12246
349 12 2 -5.90625 -5.30440 19.12246
350 12 2 -5.90625 -5.30440 20.12246
351 12 2 -5.90625 -5.30440 21.12246
352 12 2 -5.90625 -5.30440 22.12246
353 12 2 -5.90625 -5.30440 23.12246
354 12 2 -5.90625 -5.30440 24.12246
355 12 2 -5.90625 -5.30440 25.12246
356 12 2 -5.90625 -5.30440 26.12246
357 12 2 -5.90625 -5.30440 27.12246
358 12 2 -5.90625 -5.30440 28.12246
359 12 2 -5.90625 -5.30440 29.12246
360 12 3 -5.90625 -5.30440 30.12246
361 13 1 -4.33125 -3.78885 1.12246
362 13 2 -4.33125 -3.78885 2.12246
363 13 2 -4.33125 -3.78885 3.12246
364 13 2 -4.33125 -3.78885 4.12246
365 13 2 -4.33125 -3.78885 5.12246
366 13 2 -4.33125 -3.78885 6.12246
367 13 2 -4.33125 -3.78885 7.12246
368 13 2 -4.33125 -3.78885 8.12246
369 13 2 -4.33125 -3.78885 9.12246
370 13 2 -4.33125 -3.78885 10.12246
371 13 2 -4.33125 -3.78885 11.12246
372 13 2 -4.33125 -3.78885 12.12246
373 13 2 -4.33125 -3.78885 13.12246
374 13 2 -4.33125 -3.78885 14.12246
375 13 2 -4.33125 -3.78885 15.12246
376 13 2 -4.33125 -3.78885 16.12246
377 13 2 -4.33125 -3.78885 17.12246
378 13 2 -4.33125 -3.78885 18.12246
379 13 2 -4.33125 -3.78885 19.12246
380 13 2 -4.33125 -3.78885 20.12246
381 13 2 -4.33125 -3.78885 21.12246
382 13 2 -4.33125 -3.78885 22.12246
383 13 2 -4.33125 -3.78885 23.12246
384 13 2 -4.33125 -3.78885 24.12246
385 13 2 -4.33125 -3.78885 25.12246
386 13 2 -4.33125 -3.78885 26.12246
387 13 2 -4.33125 -3.78885 27.12246
388 13 2 -4.33125 -3.78885 28.12246
389 13 2 -4.33125 -3.78885 29.12246
390 13 3 -4.33125 -3.78885 30.12246
391 14 1 -2.75625 -5.30440 1.12246
392 14 2 -2.75625 -5.30440 2.12246
393 14 2 -2.75625 -5.30440 3.12246
394 14 2 -2.75625 -5.30440 4.12246
395 14 2 -2.75625 -5.30440 5.12246
396 14 2 -2.75625 -5.30440 6.12246
397 14 2 -2.75625 -5.30440 7.12246
398 14 2 -2.75625 -5.30440 8.12246
399 14 2 -2.75625 -5.30440 9.12246
400 14 2 -2.75625 -5.30440 10.12246
401 14 2 -2.75625 -5.30440 11.12246
402 14 2 -2.75625 -5.30440 12.12246
403 14 2 -2.75625 -5.30440 13.12246
404 14 2 -2.75625 -5.30440 14.12246
405 14 2 -2.75625 -5.30440 15.12246
406 14 2 -2.75625 -5.30440 16.12246
407 14 2 -2.75625 -5.30440 17.12246
408 14 2 -2.75625 -5.30440 18.12246
409 14 2 -2.75625 -5.30440 19.12246
410 14 2 -2.75625 -5.30440 20.12246
411 14 2 -2.75625 -5.30440 21.12246
412 14 2 -2.75625 -5.30440 22.12246
413 14 2 -2.75625 -5.30440 23.12246
414 14 2 -2.75625 -5.30440 24.12246
415 14 2 -2.75625 -5.30440 25.12246
416 14 2 -2.75625 -5.30440 26.12246
417 14 2 -2.75625 -5.30440 27.12246
418 14 2 -2.75625 -5.30440 28.12246
419 14 2 -2.75625 -5.30440 29.12246
420 14 3 -2.75625 -5.30440 30.12246
421 15 1 -1.18125 -3.78885 1.12246
422 15 2 -1.18125 -3.78885 2.12246
423 15 2 -1.18125 -3.78885 3.12246
424 15 2 -1.18125 -3.78885 4.12246
425 15 2 -1.18125 -3.78885 5.12246
426 15 2 -1.18125 -3.78885 6.12246
427 15 2 -1.18125 -3.78885 7.12246
428 15 2 -1.18125 -3.78885 8.12246
429 15 2 -1.18125 -3.78885 9.12246
430 15 2 -1.18125 -3.78885 10.12246
431 15 2 -1.18125 -3.78885 11.12246
432 15 2 -1.18125 -3.78885 12.12246
433 15 2 -1.18125 -3.78885 13.12246
434 15 2 -1.18125 -3.78885 14.12246
435 15 2 -1.18125 -3.78885 15.12246
436 15 2 -1.18125 -3.78885 16.12246
437 15 2 -1.18125 -3.78885 17.12246
438 15 2 -1.18125 -3.78885 18.12246
439 15 2 -1.18125 -3.78885 19.12246
440 15 2 -1.18125 -3.78885 20.12246
441 15 2 -1.18125 -3.78885 21.12246
442 15 2 -1.18125 -3.78885 22.12246
443 15 2 -1.18125 -3.78885 23.12246
444 15 2 -1.18125 -3.78885 24.12246
445 15 2 -1.18125 -3.78885 25.12246
446 15 2 -1.18125 -3.78885 26.12246
447 15 2 -1.18125 -3.78885 27.12246
448 15 2 -1.18125 -3.78885 28.12246
449 15 2 -1.18125 -3.78885 29.12246
450 15 3 -1.18125 -3.78885 30.12246
451 16 1 0.39375 -5.30440 1.12246
452 16 2 0.39375 -5.30440 2.12246
453 16 2 0.39375 -5.30440 3.12246
454 16 2 0.39375 -5.30440 4.12246
455 16 2 0.39375 -5.30440 5.12246
456 16 2 0.39375 -5.30440 6.12246
457 16 2 0.39375 -5.30440 7.12246
458 16 2 0.39375 -5.30440 8.12246
459 16 2 0.39375 -5.30440 9.12246
460 16 2 0.39375 -5.30440 10.12246
461 16 2 0.39375 -5.30440 11.12246
462 16 2 0.39375 -5.30440 12.12246
463 16 2 0.39375 -5.30440 13.12246
464 16 2 0.39375 -5.30440 14.12246
465 16 2 0.39375 -5.30440 15.12246
466 16 2 0.39375 -5.30440 16.12246
467 16 2 0.39375 -5.30440 17.12246
468 16 2 0.39375 -5.30440 18.12246
469 16 2 0.39375 -5.30440 19.12246
470 16 2 0.39375 -5.30440 20.12246
471 16 2 0.39375 -5.30440 21.12246
472 16 2 0.39375 -5.30440 22.12246
473 16 2 0.39375 -5.30440 23.12246
474 16 2 0.39375 -5.30440 24.12246
475 16 2 0.39375 -5.30440 25.12246
476 16 2 0.39375 -5.30440 26.12246
477 16 2 0.39375 -5.30440 27.12246
478 16 2 0.39375 -5.30440 28.12246
479 16 2 0.39375 -5.30440 29.12246
480 16 3 0.39375 -5.30440 30.12246
481 17 1 1.96875 -3.78885 1.12246
482 17 2 1.96875 -3.78885 2.12246
483 17 2 1.96875 -3.78885 3.12246
484 17 2 1.96875 -3.78885 4.12246
485 17 2 1.96875 -3.78885 5.12246
486 17 2 1.96875 -3.78885 6.12246
487 17 2 1.96875 -3.78885 7.12246
488 17 2 1.96875 -3.78885 8.12246
489 17 2 1.96875 -3.78885 9.12246
490 17 2 1.96875 -3.78885 10.12246
491 17 2 1.96875 -3.78885 11.12246
492 17 2 1.96875 -3.78885 12.12246
493 17 2 1.96875 -3.78885 13.12246
494 17 2 1.96875 -3.78885 14.12246
495 17 2 1.96875 -3.78885 15.12246
496 17 2 1.96875 -3.78885 16.12246
497 17 2 1.96875 -3.78885 17.12246
498 17 2 1.96875 -3.78885 18.12246
499 17 2 1.96875 -3.78885 19.12246
500 17 2 1.96875 -3.78885 20.12246
501 17 2 1.96875 -3.78885 21.12246
502 17 2 1.96875 -3.78885 22.12246
503 17 2 1.96875 -3.78885 23.12246
504 17 2 1.96875 -3.78885 24.12246
505 17 2 1.96875 -3.78885 25.12246
506 17 2 1.96875 -3.78885 26.12246
507 17 2 1.96875 -3.78885 27.12246
508 17 2 1.96875 -3.78885 28.12246
509 17 2 1.96875 -3.78885 29.12246
510 17 3 1.96875 -3.78885 30.12246
511 18 1 3.54375 -5.30440 1.12246
512 18 2 3.54375 -5.30440 2.12246
513 18 2 3.54375 -5.30440 3.12246
514 18 2 3.54375 -5.30440 4.12246
515 18 2 3.54375 -5.30440 5.12246
516 18 2 3.54375 -5.30440 6.12246
517 18 2 3.54375 -5.30440 7.12246
518 18 2 3.54375 -5.30440 8.12246
519 18 2 3.54375 -5.30440 9.12246
520 18 2 3.54375 -5.30440 10.12246
521 18 2 3.54375 -5.30440 11.12246
522 18 2 3.54375 -5.30440 12.12246
523 18 2 3.54375 -5.30440 13.12246
524 18 2 3.54375 -5.30440 14.12246
525 18 2 3.54375 -5.30440 15.12246
526 18 2 3.54375 -5.30440 16.12246
527 18 2 3.54375 -5.30440 17.12246
528 18 2 3.54375 -5.30440 18.12246
529 18 2 3.54375 -5.30440 19.12246
530 18 2 3.54375 -5.30440 20.12246
531 18 2 3.54375 -5.30440 21.12246
532 18 2 3.54375 -5.30440 22.12246
533 18 2 3.54375 -5.30440 23.12246
534 18 2 3.54375 -5.30440 24.12246
535 18 2 3.54375 -5.30440 25.12246
536 18 2 3.54375 -5.30440 26.12246
537 18 2 3.54375 -5.30440 27.12246
538 18 2 3.54375 -5.30440 28.12246
539 18 2 3.54375 -5.30440 29.12246
540 18 3 3.54375 -5.30440 30.12246
541 19 1 5.11875 -3.78885 1.12246
542 19 2 5.11875 -3.78885 2.12246
543 19 2 5.11875 -3.78885 3.12246
544 19 2 5.11875 -3.78885 4.12246
545 19 2 5.11875 -3.78885 5.12246
546 19 2 5.11875 -3.78885 6.12246
547 19 2 5.11875 -3.78885 7.12246
548 19 2 5.11875 -3.78885 8.12246
549 19 2 5.11875 -3.78885 9.12246
550 19 2 5.11875 -3.78885 10.12246
551 19 2 5.11875 -3.78885 11.12246
552 19 2 5.11875 -3.78885 12.12246
553 19 2 5.11875 -3.78885 13.12246
554 19 2 5.11875 -3.78885 14.12246
555 19 2 5.11875 -3.78885 15.12246
556 19 2 5.11875 -3.78885 16.12246
557 19 2 5.11875 -3.78885 17.12246
558 19 2 5.11875 -3.78885 18.12246
559 19 2 5.11875 -3.78885 19.12246
560 19 2 5.11875 -3.78885 20.12246
561 19 2 5.11875 -3.78885 21.12246
562 19 2 5.11875 -3.78885 22.12246
563 19 2 5.11875 -3.78885 23.12246
564 19 2 5.11875 -3.78885 24.12246
565 19 2 5.11875 -3.78885 25.12246
566 19 2 5.11875 -3.78885 26.12246
567 19 2 5.11875 -3.78885 27.12246
568 19 2 5.11875 -3.78885 28.12246
569 19 2 5.11875 -3.78885 29.12246
570 19 3 5.11875 -3.78885 30.12246
571 20 1 6.69375 -5.30440 1.12246
572 20 2 6.69375 -5.30440 2.12246
573 20 2 6.69375 -5.30440 3.12246
574 20 2 6.69375 -5.30440 4.12246
575 20 2 6.69375 -5.30440 5.12246
576 20 2 6.69375 -5.30440 6.12246
577 20 2 6.69375 -5.30440 7.12246
578 20 2 6.69375 -5.30440 8.12246
579 20 2 6.69375 -5.30440 9.12246
580 20 2 6.69375 -5.30440 10.12246
581 20 2 6.69375 -5.30440 11.12246
582 20 2 6.69375 -5.30440 12.12246
583 20 2 6.69375 -5.30440 13.12246
584 20 2 6.69375 -5.30440 14.12246
585 20 2 6.69375 -5.30440 15.12246
586 20 2 6.69375 -5.30440 16.12246
587 20 2 6.69375 -5.30440 17.12246
588 20 2 6.69375 -5.30440 18.12246
589 20 2 6.69375 -5.30440 19.12246
590 20 2 6.69375 -5.30440 20.12246
591 20 2 6.69375 -5.30440 21.12246
592 20 2 6.69375 -5.30440 22.12246
593 20 2 6.69375 -5.30440 23.12246
594 20 2 6.69375 -5.30440 24.12246
595 20 2 6.69375 -5.30440 25.12246
596 20 2 6.69375 -5.30440 26.12246
597 20 2 6.69375 -5.30440 27.12246
598 20 2 6.69375 -5.30440 28.12246
599 20 2 6.69375 -5.30440 29.12246
600 20 3 6.69375 -5.30440 30.12246
601 21 1 -7.48125 -0.75777 1.12246
602 21 2 -7.48125 -0.75777 2.12246
603 21 2 -7.48125 -0.75777 3.12246
604 21 2 -7.48125 -0.75777 4.12246
605 21 2 -7.48125 -0.75777 5.12246
606 21 2 -7.48125 -0.75777 6.12246
607 21 2 -7.48125 -0.75777 7.12246
608 21 2 -7.48125 -0.75777 8.12246
609 21 2 -7.48125 -0.75777 9.12246
610 21 2 -7.48125 -0.75777 10.12246
611 21 2 -7.48125 -0.75777 11.12246
612 21 2 -7.48125 -0.75777 12.12246
613 21 2 -7.48125 -0.75777 13.12246
614 21 2 -7.48125 -0.75777 14.12246
615 21 2 -7.48125 -0.75777 15.12246
616 21 2 -7.48125 -0.75777 16.12246
617 21 2 -7.48125 -0.75777 17.12246
618 21 2 -7.48125 -0.75777 18.12246
619 21 2 -7.48125 -0.75777 19.12246
620 21 2 -7.48125 -0.75777 20.12246
621 21 2 -7.48125 -0.75777 21.12246
622 21 2 -7.48125 -0.75777 22.12246
623 21 2 -7.48125 -0.75777 23.12246
624 21 2 -7.48125 -0.75777 24.12246
625 21 2 -7.48125 -0.75777 25.12246
626 21 2 -7.48125 -0.75777 26.12246
627 21 2 -7.48125 -0.75777 27.12246
628 21 2 -7.48125 -0.75777 28.12246
629 21 2 -7.48125 -0.75777 29.12246
630 21 3 -7.48125 -0.75777 30.12246
631 22 1 -5.90625 -2.27331 1.12246
632 22 2 -5.90625 -2.27331 2.12246
633 22 2 -5.90625 -2.27331 3.12246
634 22 2 -5.90625 -2.27331 4.12246
635 22 2 -5.90625 -2.27331 5.12246
636 22 2 -5.90625 -2.27331 6.12246
637 22 2 -5.90625 -2.27331 7.12246
638 22 2 -5.90625 -2.27331 8.12246
639 22 2 -5.90625 -2.27331 9.12246
640 22 2 -5.90625 -2.27331 10.12246
641 22 2 -5.90625 -2.27331 11.12246
642 22 2 -5.90625 -2.27331 12.12246
643 22 2 -5.90625 -2.27331 13.12246
644 22 2 -5.90625 -2.27331 14.12246
645 22 2 -5.90625 -2.27331 15.12246
646 22 2 -5.90625 -2.27331 16.12246
647 22 2 -5.90625 -2.27331 17.12246
648 22 2 -5.90625 -2.27331 18.12246
649 22 2 -5.90625 -2.27331 19.12246
650 22 2 -5.90625 -2.27331 20.12246
651 22 2 -5.90625 -2.27331 21.12246
652 22 2 -5.90625 -2.27331 22.12246
653 22 2 -5.90625 -2.27331 23.12246
654 22 2 -5.90625 -2.27331 24.12246
655 22 2 -5.90625 -2.27331 25.12246
656 22 2 -5.90625 -2.27331 26.12246
657 22 2 -5.90625 -2.27331 27.12246
658 22 2 -5.90625 -2.27331 28.12246
659 22 2 -5.90625 -2.27331 29.12246
660 22 3 -5.90625 -2.27331 30.12246
661 23 1 -4.33125 -0.75777 1.12246
662 23 2 -4.33125 -0.75777 2.12246
663 23 2 -4.33125 -0.75777 3.12246
664 23 2 -4.33125 -0.75777 4.12246
665 23 2 -4.33125 -0.75777 5.12246
666 23 2 -4.33125 -0.75777 6.12246
667 23 2 -4.33125 -0.75777 7.12246
668 23 2 -4.33125 -0.75777 8.12246
669 23 2 -4.33125 -0.75777 9.12246
670 23 2 -4.33125 -0.75777 10.12246
671 23 2 -4.33125 -0.75777 11.12246
672 23 2 -4.33125 -0.75777 12.12246
673 23 2 -4.33125 -0.75777 13.12246
674 23 2 -4.33125 -0.75777 14.12246
675 23 2 -4.33125 -0.75777 15.12246
676 23 2 -4.33125 -0.75777 16.12246
677 23 2 -4.33125 -0.75777 17.12246
678 23 2 -4.33125 -0.75777 18.12246
679 23 2 -4.33125 -0.75777 19.12246
680 23 2 -4.33125 -0.75777 20.12246
681 23 2 -4.33125 -0.75777 21.12246
682 23 2 -4.33125 -0.75777 22.12246
683 23 2 -4.33125 -0.75777 23.12246
684 23 2 -4.33125 -0.75777 24.12246
685 23 2 -4.33125 -0.75777 25.12246
686 23 2 -4.33125 -0.75777 26.12246
687 23 2 -4.33125 -0.75777 27.12246
688 23 2 -4.33125 -0.75777 28.12246
689 23 2 -4.33125 -0.75777 29.12246
690 23 3 -4.33125 -0.75777 30.12246
691 24 1 -2.75625 -2.27331 1.12246
692 24 2 -2.75625 -2.27331 2.12246
693 24 2 -2.75625 -2.27331 3.12246
694 24 2 -2.75625 -2.27331 4.12246
695 24 2 -2.75625 -2.27331 5.12246
696 24 2 -2.75625 -2.27331 6.12246
697 24 2 -2.75625 -2.27331 7.12246
698 24 2 -2.75625 -2.27331 8.12246
699 24 2 -2.75625 -2.27331 9.12246
700 24 2 -2.75625 -2.27331 10.12246
701 24 2 -2.75625 -2.27331 11.12246
702 24 2 -2.75625 -2.27331 12.12246
703 24 2 -2.75625 -2.27331 13.12246
704 24 2 -2.75625 -2.27331 14.12246
705 24 2 -2.75625 -2.27331 15.12246
706 24 2 -2.75625 -2.27331 16.12246
707 24 2 -2.75625 -2.27331 17.12246
708 24 2 -2.75625 -2.27331 18.12246
709 24 2 -2.75625 -2.27331 19.12246
710 24 2 -2.75625 -2.27331 20.12246
711 24 2 -2.75625 -2.27331 21.12246
712 24 2 -2.75625 -2.27331 22.12246
713 24 2 -2.75625 -2.27331 23.12246
714 24 2 -2.75625 -2.27331 24.12246
715 24 2 -2.75625 -2.27331 25.12246
716 24 2 -2.75625 -2.27331 26.12246
717 24 2 -2.75625 -2.27331 27.12246
718 24 2 -2.75625 -2.27331 28.12246
719 24 2 -2.75625 -2.27331 29.12246
720 24 3 -2.75625 -2.27331 30.12246
721 25 1 -1.18125 -0.75777 1.12246
722 25 2 -1.18125 -0.75777 2.12246
723 25 2 -1.18125 -0.75777 3.12246
724 25 2 -1.18125 -0.75777 4.12246
725 25 2 -1.18125 -0.75777 5.12246
726 25 2 -1.18125 -0.75777 6.12246
727 25 2 -1.18125 -0.75777 7.12246
728 25 2 -1.18125 -0.75777 8.12246
729 25 2 -1.18125 -0.75777 9.12246
730 25 2 -1.18125 -0.75777 10.12246
731 25 2 -1.18125 -0.75777 11.12246
732 25 2 -1.18125 -0.75777 12.12246
733 25 2 -1.18125 -0.75777 13.12246
734 25 2 -1.18125 -0.75777 14.12246
735 25 2 -1.18125 -0.75777 15.12246
736 25 2 -1.18125 -0.75777 16.12246
737 25 2 -1.18125 -0.75777 17.12246
738 25 2 -1.18125 -0.75777 18.12246
739 25 2 -1.18125 -0.75777 19.12246
740 25 2 -1.18125 -0.75777 20.12246
741 25 2 -1.18125 -0.75777 21.12246
742 25 2 -1.18125 -0.75777 22.12246
743 25 2 -1.18125 -0.75777 23.12246
744 25 2 -1.18125 -0.75777 24.12246
745 25 2 -1.18125 -0.75777 25.12246
746 25 2 -1.18125 -0.75777 26.12246
747 25 2 -1.18125 -0.75777 27.12246
748 25 2 -1.18125 -0.75777 28.12246
749 25 2 -1.18125 -0.75777 29.12246
750 25 3 -1.18125 -0.75777 30.12246
751 26 1 0.39375 -2.27331 1.12246
752 26 2 0.39375 -2.27331 2.12246
753 26 2 0.39375 -2.27331 3.12246
754 26 2 0.39375 -2.27331 4.12246
755 26 2 0.39375 -2.27331 5.12246
756 26 2 0.39375 -2.27331 6.12246
757 26 2 0.39375 -2.27331 7.12246
758 26 2 0.39375 -2.27331 8.12246
759 26 2 0.39375 -2.27331 9.12246
760 26 2 0.39375 -2.27331 10.12246
761 26 2 0.39375 -2.27331 11.12246
762 26 2 0.39375 -2.27331 12.12246
763 26 2 0.39375 -2.27331 13.12246
764 26 2 0.39375 -2.27331 14.12246
765 26 2 0.39375 -2.27331 15.12246
766 26 2 0.39375 -2.27331 16.12246
767 26 2 0.39375 -2.27331 17.12246
768 26 2 0.39375 -2.27331 18.12246
769 26 2 0.39375 -2.27331 19.12246
770 26 2 0.39375 -2.27331 20.12246
771 26 2 0.39375 -2.27331 21.12246
772 26 2 0.39375 -2.27331 22.12246
773 26 2 0.39375 -2.27331 23.12246
774 26 2 0.39375 -2.27331 24.12246
775 26 2 0.39375 -2.27331 25.12246
776 26 2 0.39375 -2.27331 26.12246
777 26 2 0.39375 -2.27331 27.12246
778 26 2 0.39375 -2.27331 28.12246
779 26 2 0.39375 -2.27331 29.12246
780 26 3 0.39375 -2.27331 30.12246
781 27 1 1.96875 -0.75777 1.12246
782 27 2 1.96875 -0.75777 2.12246
783 27 2 1.96875 -0.75777 3.12246
784 27 2 1.96875 -0.75777 4.12246
785 27 2 1.96875 -0.75777 5.12246
786 27 2 1.96875 -0.75777 6.12246
787 27 2 1.96875 -0.75777 7.12246
788 27 2 1.96875 -0.75777 8.12246
789 27 2 1.96875 -0.75777 9.12246
790 27 2 1.96875 -0.75777 10.12246
791 27 2 1.96875 -0.75777 11.12246
792 27 2 1.96875 -0.75777 12.12246
793 27 2 1.96875 -0.75777 13.12246
794 27 2 1.96875 -0.75777 14.12246
795 27 2 1.96875 -0.75777 15.12246
796 27 2 1.96875 -0.75777 16.12246
797 27 2 1.96875 -0.75777 17.12246
798 27 2 1.96875 -0.75777 18.12246
799 27 2 1.96875 -0.75777 19.12246
800 27 2 1.96875 -0.75777 20.12246
801 27 2 1.96875 -0.75777 21.12246
802 27 2 1.96875 -0.75777 22.12246
803 27 2 1.96875 -0.75777 23.12246
804 27 2 1.96875 -0.75777 24.12246
805 27 2 1.96875 -0.75777 25.12246
806 27 2 1.96875 -0.75777 26.12246
807 27 2 1.96875 -0.75777 27.12246
808 27 2 1.96875 -0.75777 28.12246
809 27 2 1.96875 -0.75777 29.12246
810 27 3 1.96875 -0.75777 30.12246
811 28 1 3.54375 -2.27331 1.12246
812 28 2 3.54375 -2.27331 2.12246
813 28 2 3.54375 -2.27331 3.12246
814 28 2 3.54375 -2.27331 4.12246
815 28 2 3.54375 -2.27331 5.12246
816 28 2 3.54375 -2.27331 6.12246
817 28 2 3.54375 -2.27331 7.12246
818 28 2 3.54375 -2.27331 8.12246
819 28 2 3.54375 -2.27331 9.12246
820 28 2 3.54375 -2.27331 10.12246
821 28 2 3.54375 -2.27331 11.12246
822 28 2 3.54375 -2.27331 12.12246
823 28 2 3.54375 -2.27331 13.12246
824 28 2 3.54375 -2.27331 14.12246
825 28 2 3.54375 -2.27331 15.12246
826 28 2 3.54375 -2.27331 16.12246
827 28 2 3.54375 -2.27331 17.12246
828 28 2 3.54375 -2.27331 18.12246
829 28 2 3.54375 -2.27331 19.12246
830 28 2 3.54375 -2.27331 20.12246
831 28 2 3.54375 -2.27331 21.12246
832 28 2 3.54375 -2.27331 22.12246
833 28 2 3.54375 -2.27331 23.12246
834 28 2 3.54375 -2.27331 24.12246
835 28 2 3.54375 -2.27331 25.12246
836 28 2 3.54375 -2.27331 26.12246
837 28 2 3.54375 -2.27331 27.12246
838 28 2 3.54375 -2.27331 28.12246
839 28 2 3.54375 -2.27331 29.12246
840 28 3 3.54375 -2.27331 30.12246
841 29 1 5.11875 -0.75777 1.12246
842 29 2 5.11875 -0.75777 2.12246
843 29 2 5.11875 -0.75777 3.12246
844 29 2 5.11875 -0.75777 4.12246
845 29 2 5.11875 -0.75777 5.12246
846 29 2 5.11875 -0.75777 6.12246
847 29 2 5.11875 -0.75777 7.12246
848 29 2 5.11875 -0.75777 8.12246
849 29 2 5.11875 -0.75777 9.12246
850 29 2 5.11875 -0.75777 10.12246
851 29 2 5.11875 -0.75777 11.12246
852 29 2 5.11875 -0.75777 12.12246