LAMMPS data file via write_data, version 31 Mar 2017, timestep = 5000000

2101 atoms
5 atom types
1740 bonds
1 bond types

-7.8750000000000000e+00 7.8750000000000000e+00 xlo xhi
-9.0932499999999994e+00 9.0932499999999994e+00 ylo yhi
-3.0000000000000000e+00 4.0000000000000000e+01 zlo zhi

Masses

1 1
2 1
3 1
4 1
5 1

Pair Coeffs # lj/expand

1 1 1 0
2 1 1 0
3 1 1 0
4 0 0 0
5 1 1 3

Bond Coeffs # fene

1 30 1.5 1 1

Atoms # bond

1801 61 4 -7.8750000000000000e+00 -9.0932499999999994e+00 0.0000000000000000e+00 0 0 0
1802 62 4 -7.8750000000000000e+00 -7.2746000000000004e+00 0.0000000000000000e+00 0 0 0
1811 71 4 -7.3499999999999996e+00 -8.1839300000000001e+00 0.0000000000000000e+00 0 0 0
1821 81 4 -6.8250000000000002e+00 -9.0932499999999994e+00 0.0000000000000000e+00 0 0 0
1822 82 4 -6.8250000000000002e+00 -7.2746000000000004e+00 0.0000000000000000e+00 0 0 0
1831 91 4 -6.2999999999999998e+00 -8.1839300000000001e+00 0.0000000000000000e+00 0 0 0
1841 101 4 -5.7750000000000004e+00 -9.0932499999999994e+00 0.0000000000000000e+00 0 0 0
1842 102 4 -5.7750000000000004e+00 -7.2746000000000004e+00 0.0000000000000000e+00 0 0 0
1851 111 4 -5.2500000000000000e+00 -8.1839300000000001e+00 0.0000000000000000e+00 0 0 0
1861 121 4 -4.7249999999999996e+00 -9.0932499999999994e+00 0.0000000000000000e+00 0 0 0
1862 122 4 -4.7249999999999996e+00 -7.2746000000000004e+00 0.0000000000000000e+00 0 0 0
1871 131 4 -4.2000000000000002e+00 -8.1839300000000001e+00 0.0000000000000000e+00 0 0 0
1881 141 4 -3.6749999999999998e+00 -9.0932499999999994e+00 0.0000000000000000e+00 0 0 0
1882 142 4 -3.6749999999999998e+00 -7.2746000000000004e+00 0.0000000000000000e+00 0 0 0
1891 151 4 -3.1499999999999999e+00 -8.1839300000000001e+00 0.0000000000000000e+00 0 0 0
1901 161 4 -2.6250000000000000e+00 -9.0932499999999994e+00 0.0000000000000000e+00 0 0 0
1902 162 4 -2.6250000000000000e+00 -7.2746000000000004e+00 0.0000000000000000e+00 0 0 0
1911 171 4 -2.1000000000000001e+00 -8.1839300000000001e+00 0.0000000000000000e+00 0 0 0
1921 181 4 -1.5750000000000000e+00 -9.0932499999999994e+00 0.0000000000000000e+00 0 0 0
1922 182 4 -1.5750000000000000e+00 -7.2746000000000004e+00 0.0000000000000000e+00 0 0 0
1931 191 4 -1.0500000000000000e+00 -8.1839300000000001e+00 0.0000000000000000e+00 0 0 0
1941 201 4 -5.2500000000000002e-01 -9.0932499999999994e+00 0.0000000000000000e+00 0 0 0
1942 202 4 -5.2500000000000002e-01 -7.2746000000000004e+00 0.0000000000000000e+00 0 0 0
1951 211 4 0.0000000000000000e+00 -8.1839300000000001e+00 0.0000000000000000e+00 0 0 0
1812 72 4 -7.3499999999999996e+00 -6.3652800000000003e+00 0.0000000000000000e+00 0 0 0
1832 92 4 -6.2999999999999998e+00 -6.3652800000000003e+00 0.0000000000000000e+00 0 0 0
1803 63 4 -7.8750000000000000e+00 -5.4559499999999996e+00 0.0000000000000000e+00 0 0 0
1823 83 4 -6.8250000000000002e+00 -5.4559499999999996e+00 0.0000000000000000e+00 0 0 0
1843 103 4 -5.7750000000000004e+00 -5.4559499999999996e+00 0.0000000000000000e+00 0 0 0
1813 73 4 -7.3499999999999996e+00 -4.5466300000000004e+00 0.0000000000000000e+00 0 0 0
1833 93 4 -6.2999999999999998e+00 -4.5466300000000004e+00 0.0000000000000000e+00 0 0 0
1852 112 4 -5.2500000000000000e+00 -6.3652800000000003e+00 0.0000000000000000e+00 0 0 0
1853 113 4 -5.2500000000000000e+00 -4.5466300000000004e+00 0.0000000000000000e+00 0 0 0
1872 132 4 -4.2000000000000002e+00 -6.3652800000000003e+00 0.0000000000000000e+00 0 0 0
1892 152 4 -3.1499999999999999e+00 -6.3652800000000003e+00 0.0000000000000000e+00 0 0 0
1863 123 4 -4.7249999999999996e+00 -5.4559499999999996e+00 0.0000000000000000e+00 0 0 0
1883 143 4 -3.6749999999999998e+00 -5.4559499999999996e+00 0.0000000000000000e+00 0 0 0
1873 133 4 -4.2000000000000002e+00 -4.5466300000000004e+00 0.0000000000000000e+00 0 0 0
1893 153 4 -3.1499999999999999e+00 -4.5466300000000004e+00 0.0000000000000000e+00 0 0 0
393 14 2 -4.4357389947805972e+00 -5.1079308508622230e+00 1.0985015808355305e+00 0 0 0
392 14 2 -3.4774769001144463e+00 -5.4674766631572638e+00 1.1016075498205271e+00 0 0 0
1903 163 4 -2.6250000000000000e+00 -5.4559499999999996e+00 0.0000000000000000e+00 0 0 0
1912 172 4 -2.1000000000000001e+00 -6.3652800000000003e+00 0.0000000000000000e+00 0 0 0
1932 192 4 -1.0500000000000000e+00 -6.3652800000000003e+00 0.0000000000000000e+00 0 0 0
1923 183 4 -1.5750000000000000e+00 -5.4559499999999996e+00 0.0000000000000000e+00 0 0 0
1943 203 4 -5.2500000000000002e-01 -5.4559499999999996e+00 0.0000000000000000e+00 0 0 0
1913 173 4 -2.1000000000000001e+00 -4.5466300000000004e+00 0.0000000000000000e+00 0 0 0
1933 193 4 -1.0500000000000000e+00 -4.5466300000000004e+00 0.0000000000000000e+00 0 0 0
1953 213 4 0.0000000000000000e+00 -4.5466300000000004e+00 0.0000000000000000e+00 0 0 0
1952 212 4 0.0000000000000000e+00 -6.3652800000000003e+00 0.0000000000000000e+00 0 0 0
1804 64 4 -7.8750000000000000e+00 -3.6373000000000002e+00 0.0000000000000000e+00 0 0 0
1824 84 4 -6.8250000000000002e+00 -3.6373000000000002e+00 0.0000000000000000e+00 0 0 0
1844 104 4 -5.7750000000000004e+00 -3.6373000000000002e+00 0.0000000000000000e+00 0 0 0
1814 74 4 -7.3499999999999996e+00 -2.7279800000000001e+00 0.0000000000000000e+00 0 0 0
1834 94 4 -6.2999999999999998e+00 -2.7279800000000001e+00 0.0000000000000000e+00 0 0 0
1854 114 4 -5.2500000000000000e+00 -2.7279800000000001e+00 0.0000000000000000e+00 0 0 0
1864 124 4 -4.7249999999999996e+00 -3.6373000000000002e+00 0.0000000000000000e+00 0 0 0
1884 144 4 -3.6749999999999998e+00 -3.6373000000000002e+00 0.0000000000000000e+00 0 0 0
1874 134 4 -4.2000000000000002e+00 -2.7279800000000001e+00 0.0000000000000000e+00 0 0 0
1894 154 4 -3.1499999999999999e+00 -2.7279800000000001e+00 0.0000000000000000e+00 0 0 0
1904 164 4 -2.6250000000000000e+00 -3.6373000000000002e+00 0.0000000000000000e+00 0 0 0
1924 184 4 -1.5750000000000000e+00 -3.6373000000000002e+00 0.0000000000000000e+00 0 0 0
1944 204 4 -5.2500000000000002e-01 -3.6373000000000002e+00 0.0000000000000000e+00 0 0 0
1914 174 4 -2.1000000000000001e+00 -2.7279800000000001e+00 0.0000000000000000e+00 0 0 0
1934 194 4 -1.0500000000000000e+00 -2.7279800000000001e+00 0.0000000000000000e+00 0 0 0
1954 214 4 0.0000000000000000e+00 -2.7279800000000001e+00 0.0000000000000000e+00 0 0 0
1805 65 4 -7.8750000000000000e+00 -1.8186500000000001e+00 0.0000000000000000e+00 0 0 0
1815 75 4 -7.3499999999999996e+00 -9.0932999999999997e-01 0.0000000000000000e+00 0 0 0
1825 85 4 -6.8250000000000002e+00 -1.8186500000000001e+00 0.0000000000000000e+00 0 0 0
1835 95 4 -6.2999999999999998e+00 -9.0932999999999997e-01 0.0000000000000000e+00 0 0 0
1845 105 4 -5.7750000000000004e+00 -1.8186500000000001e+00 0.0000000000000000e+00 0 0 0
1806 66 4 -7.8750000000000000e+00 0.0000000000000000e+00 0.0000000000000000e+00 0 0 0
1846 106 4 -5.7750000000000004e+00 0.0000000000000000e+00 0.0000000000000000e+00 0 0 0
1826 86 4 -6.8250000000000002e+00 0.0000000000000000e+00 0.0000000000000000e+00 0 0 0
1855 115 4 -5.2500000000000000e+00 -9.0932999999999997e-01 0.0000000000000000e+00 0 0 0
1865 125 4 -4.7249999999999996e+00 -1.8186500000000001e+00 0.0000000000000000e+00 0 0 0
1875 135 4 -4.2000000000000002e+00 -9.0932999999999997e-01 0.0000000000000000e+00 0 0 0
1885 145 4 -3.6749999999999998e+00 -1.8186500000000001e+00 0.0000000000000000e+00 0 0 0
1895 155 4 -3.1499999999999999e+00 -9.0932999999999997e-01 0.0000000000000000e+00 0 0 0
1866 126 4 -4.7249999999999996e+00 0.0000000000000000e+00 0.0000000000000000e+00 0 0 0
1886 146 4 -3.6749999999999998e+00 0.0000000000000000e+00 0.0000000000000000e+00 0 0 0
1905 165 4 -2.6250000000000000e+00 -1.8186500000000001e+00 0.0000000000000000e+00 0 0 0
1906 166 4 -2.6250000000000000e+00 0.0000000000000000e+00 0.0000000000000000e+00 0 0 0
1915 175 4 -2.1000000000000001e+00 -9.0932999999999997e-01 0.0000000000000000e+00 0 0 0
1925 185 4 -1.5750000000000000e+00 -1.8186500000000001e+00 0.0000000000000000e+00 0 0 0
1935 195 4 -1.0500000000000000e+00 -9.0932999999999997e-01 0.0000000000000000e+00 0 0 0
1945 205 4 -5.2500000000000002e-01 -1.8186500000000001e+00 0.0000000000000000e+00 0 0 0
1946 206 4 -5.2500000000000002e-01 0.0000000000000000e+00 0.0000000000000000e+00 0 0 0
1926 186 4 -1.5750000000000000e+00 0.0000000000000000e+00 0.0000000000000000e+00 0 0 0
1955 215 4 0.0000000000000000e+00 -9.0932999999999997e-01 0.0000000000000000e+00 0 0 0
32 2 2 -5.3138319831667076e+00 -8.3065133417437824e+00 2.5198439374059096e+00 0 0 0
31 2 1 -5.9062500000000000e+00 -8.3354800000000004e+00 1.6875024916199077e+00 0 0 0
1 1 1 -7.4812500000000002e+00 -6.8199399999999999e+00 1.6875024916199077e+00 0 0 0
33 2 2 -5.3525660607129666e+00 -7.3958989506122528e+00 2.5720810475544682e+00 0 0 0
3 1 2 -7.6079011948300979e+00 -7.2751746855459825e+00 2.8616812198374402e+00 0 0 0
34 2 2 -4.6693882057170635e+00 -7.5844795280586972e+00 3.2639740307009530e+00 0 0 0
91 4 1 -2.7562500000000001e+00 -8.3354800000000004e+00 1.6875024916199077e+00 0 0 0
61 3 1 -4.3312499999999998e+00 -6.8199399999999999e+00 1.6875024916199077e+00 0 0 0
63 3 2 -3.6511896508853887e+00 -7.9573652859624024e+00 3.1038615023300080e+00 0 0 0
62 3 2 -4.0470643809529117e+00 -7.3283046174292474e+00 2.4551265339955464e+00 0 0 0
93 4 2 -2.6312733904081709e+00 -8.0933438318056581e+00 3.6141015766840243e+00 0 0 0
64 3 2 -3.2513336987452086e+00 -7.2531829617661314e+00 3.6413700510932641e+00 0 0 0
122 5 2 -5.5198279434480058e-01 -6.8321431371819576e+00 2.4493486000006555e+00 0 0 0
121 5 1 -1.1812499999999999e+00 -6.8199399999999999e+00 1.6875024916199077e+00 0 0 0
92 4 2 -2.5206546501835954e+00 -8.1230987962640828e+00 2.6056945830379483e+00 0 0 0
123 5 2 -1.3192553698690197e+00 -7.0892283664518301e+00 3.1521716005828742e+00 0 0 0
186 7 2 6.3833802874660187e-02 -9.0321968996803523e+00 3.2320025505073140e+00 0 0 0
332 12 2 -6.4585110890209236e+00 -5.7223285725011239e+00 2.3658810887614288e+00 0 0 0
331 12 1 -5.9062500000000000e+00 -5.3044000000000002e+00 1.6875024916199077e+00 0 0 0
333 12 2 -6.4095335359068768e+00 -5.9198020804988856e+00 3.2774241755385871e+00 0 0 0
394 14 2 -3.8949373695531455e+00 -4.7434752236378142e+00 1.7236718752289986e+00 0 0 0
395 14 2 -4.0035373158307728e+00 -5.0330688981875626e+00 2.6433764997807581e+00 0 0 0
391 14 1 -2.7562500000000001e+00 -5.3044000000000002e+00 1.6875024916199077e+00 0 0 0
398 14 2 -4.9359371174404352e+00 -5.3631636485480128e+00 3.2416957645765261e+00 0 0 0
397 14 2 -4.8606263736004491e+00 -6.2025006736944457e+00 2.8098121946632024e+00 0 0 0
396 14 2 -4.5046162484459540e+00 -5.6881746525368841e+00 2.0741872300739574e+00 0 0 0
452 16 2 -2.2947235844191641e-01 -5.2715659822062237e+00 2.3879712939893736e+00 0 0 0
425 15 2 -2.2567655881395021e+00 -4.8018689150990674e+00 3.4474665552827450e+00 0 0 0
427 15 2 -1.2392408590308022e+00 -5.0141779749231405e+00 3.5502311352448550e+00 0 0 0
634 22 2 -6.4939916857370470e+00 -4.1449753276825740e+00 3.4401249661655560e+00 0 0 0
632 22 2 -6.2207896142247066e+00 -2.6535059410738091e+00 2.4434472498351290e+00 0 0 0
633 22 2 -6.0890138844281108e+00 -3.4812748245799119e+00 2.8945998603901559e+00 0 0 0
301 11 1 -7.4812500000000002e+00 -3.7888500000000001e+00 1.6875024916199077e+00 0 0 0
631 22 1 -5.9062500000000000e+00 -2.2733099999999999e+00 1.6875024916199077e+00 0 0 0
363 13 2 -4.2426570890258750e+00 -3.8964905695720828e+00 3.3816495332326322e+00 0 0 0
362 13 2 -3.8523704505431424e+00 -3.6895714877672590e+00 2.5030086455116836e+00 0 0 0
361 13 1 -4.3312499999999998e+00 -3.7888500000000001e+00 1.6875024916199077e+00 0 0 0
691 24 1 -2.7562500000000001e+00 -2.2733099999999999e+00 1.6875024916199077e+00 0 0 0
424 15 2 -2.8980389000749467e+00 -4.2355224241653211e+00 3.0425229355416037e+00 0 0 0
694 24 2 -4.1819372992815014e+00 -2.5012232618819921e+00 2.9182163912148131e+00 0 0 0
695 24 2 -4.6860642149704033e+00 -2.9329789030629922e+00 3.6558048617321002e+00 0 0 0
422 15 2 -1.8001430981336988e+00 -3.3114121928383624e+00 2.2420081479020353e+00 0 0 0
423 15 2 -2.0361335362973096e+00 -3.8188825560451254e+00 3.0968808283387226e+00 0 0 0
421 15 1 -1.1812499999999999e+00 -3.7888500000000001e+00 1.6875024916199077e+00 0 0 0
1059 36 2 -2.0516649872651027e+00 -2.8382684237635076e+00 3.6519601464451221e+00 0 0 0
754 26 2 -5.1512404479714924e-01 -3.2876544636506178e+00 3.3349209109502227e+00 0 0 0
1060 36 2 -1.5392137527444532e+00 -2.3026823229507016e+00 3.0816416416063115e+00 0 0 0
601 21 1 -7.4812500000000002e+00 -7.5777000000000005e-01 1.6875024916199077e+00 0 0 0
602 21 2 -7.2587412538352671e+00 -1.5564831098157845e+00 2.2494017884806978e+00 0 0 0
934 32 2 -6.2303037813082645e+00 -6.9925531876989955e-01 3.5741438493079585e+00 0 0 0
603 21 2 -7.6103908695154061e+00 -1.2840181234631012e+00 3.1087405637088716e+00 0 0 0
933 32 2 -6.2099987287124909e+00 4.3016328962456850e-02 2.9175448376877982e+00 0 0 0
692 24 2 -3.2525019811922689e+00 -1.4139814616216666e+00 1.6414882559383230e+00 0 0 0
664 23 2 -4.9748278299775199e+00 -1.3625331296971279e+00 3.6507739024428871e+00 0 0 0
693 24 2 -3.5067817619927966e+00 -2.1318825722497721e+00 2.3452879699506850e+00 0 0 0
661 23 1 -4.3312499999999998e+00 -7.5777000000000005e-01 1.6875024916199077e+00 0 0 0
662 23 2 -4.8906408355761339e+00 -2.3987731373482657e-01 2.2645070649292527e+00 0 0 0
1064 36 2 -3.7252082218950018e+00 -7.6467097367335146e-01 3.1635306362763913e+00 0 0 0
1065 36 2 -2.9623378033857715e+00 -2.9885097404200084e-01 3.3676760196264546e+00 0 0 0
1063 36 2 -3.4019565687491768e+00 -1.5763064855719700e+00 3.5915630007547783e+00 0 0 0
663 23 2 -5.1071689355675716e+00 -5.7491469494105041e-01 3.1657174895574003e+00 0 0 0
721 25 1 -1.1812499999999999e+00 -7.5777000000000005e-01 1.6875024916199077e+00 0 0 0
723 25 2 -1.9581380469749321e-01 -1.1047965648092687e-02 2.7120744514040820e+00 0 0 0
1055 36 2 -2.1102075173307508e-01 -1.9250844484722318e+00 3.2300655410251928e+00 0 0 0
1061 36 2 -2.1575898390905035e+00 -1.5872357280534826e+00 3.3347804828961820e+00 0 0 0
722 25 2 -3.1731684888575346e-01 -6.9716539597749294e-01 2.1580748784421506e+00 0 0 0
1566 53 2 -7.4201387315606686e+00 -8.2333769799954801e+00 3.7548878978410580e+00 0 1 0
1568 53 2 -7.4610786413132848e+00 -8.6745413654712298e+00 5.3888111213063778e+00 0 1 0
6 1 2 -7.8403622535051838e+00 -7.1329193558975685e+00 5.5276823904699226e+00 0 0 0
5 1 2 -7.7512122190195987e+00 -6.8127302935325185e+00 4.5623851383868086e+00 0 0 0
35 2 2 -4.2514517117962773e+00 -8.1522313715465344e+00 3.9823002055186532e+00 0 0 0
94 4 2 -2.6917524414974445e+00 -7.8907240903428884e+00 4.5496289833481329e+00 0 0 0
36 2 2 -5.1971313437285636e+00 -7.9535594909070282e+00 4.1516755567297805e+00 0 0 0
37 2 2 -5.0398385829501740e+00 -8.4418279947597821e+00 5.0546755403225294e+00 0 0 0
65 3 2 -3.3171285447045511e+00 -7.0856777043807275e+00 4.6311539452043382e+00 0 0 0
95 4 2 -2.8356953895191404e+00 -8.8572035341382804e+00 4.4564484945625535e+00 0 0 0
124 5 2 -6.0832352288797820e-01 -7.1498957955885629e+00 3.8131392803949202e+00 0 0 0
129 5 2 -2.1863500071185804e-01 -8.5951874562448296e+00 5.7441525771352975e+00 0 0 0
126 5 2 -1.0995635860057549e+00 -8.1282059873416319e+00 4.3128581514405457e+00 0 0 0
127 5 2 -1.3073497088390356e+00 -8.6695252990583640e+00 5.1731242766181440e+00 0 0 0
125 5 2 -4.1175448485827976e-01 -7.5306385430770861e+00 4.6632907912625958e+00 0 0 0
130 5 2 -3.9996651383106802e-01 -7.6483343085143751e+00 5.6438972423955178e+00 0 0 0
334 12 2 -7.0861737492701984e+00 -6.1448303895963434e+00 3.9481713821064077e+00 0 0 0
335 12 2 -6.9031921546217356e+00 -6.1245704214570527e+00 4.9222165119254351e+00 0 0 0
336 12 2 -6.1346130934192535e+00 -6.4770050306370139e+00 5.3856321709108403e+00 0 0 0
637 22 2 -5.2936603495733792e+00 -5.2151410962537526e+00 5.2312335893699364e+00 0 0 0
636 22 2 -6.1158446699676166e+00 -4.9688990260221786e+00 4.7856951635635241e+00 0 0 0
308 11 2 -7.8046333252139632e+00 -4.7628304537859041e+00 5.1471865922256956e+00 0 0 0
307 11 2 -7.5020903069086380e+00 -4.8381389323745516e+00 4.2156976889779481e+00 0 0 0
66 3 2 -4.0031899989464090e+00 -6.7704704108970164e+00 5.2113517749753369e+00 0 0 0
399 14 2 -4.6467599865442013e+00 -5.6872357380537073e+00 4.1204101527147703e+00 0 0 0
400 14 2 -3.9544335049958477e+00 -6.2298357529338935e+00 3.8241009063696247e+00 0 0 0
401 14 2 -3.1237279593491367e+00 -5.8440503176756176e+00 4.1015307145675797e+00 0 0 0
402 14 2 -3.7928612382955138e+00 -5.1351308551905692e+00 4.3549339420281425e+00 0 0 0
403 14 2 -3.1353794530749144e+00 -4.8634042693561454e+00 5.0878528202730848e+00 0 0 0
426 15 2 -1.9704025627310284e+00 -5.6596940498435870e+00 3.7225430048827657e+00 0 0 0
428 15 2 -6.9050906403338175e-01 -4.8099627336945909e+00 4.2558533238500731e+00 0 0 0
429 15 2 -9.6030289561576898e-01 -4.6144054904490464e+00 5.1082281620165890e+00 0 0 0
635 22 2 -5.8147377608050208e+00 -4.2959037306342003e+00 4.1170010354319171e+00 0 0 0
875 30 2 -7.5072539043388895e+00 -3.1163674019921181e+00 3.8073788385115308e+00 1 0 0
366 13 2 -5.8077734871035354e+00 -3.3768604766723134e+00 5.2319816787908469e+00 0 0 0
877 30 2 -6.7338320669470937e+00 -2.7261511583728657e+00 5.1243522628953375e+00 1 0 0
876 30 2 -7.0045074149822524e+00 -2.5096092182120397e+00 4.3088556526303803e+00 1 0 0
367 13 2 -6.3423159860530580e+00 -4.0797727678413835e+00 5.5808252308060080e+00 0 0 0
364 13 2 -4.2171895640828394e+00 -3.9700958120207530e+00 4.3631557474344813e+00 0 0 0
365 13 2 -4.9978133115582679e+00 -3.8935308650361655e+00 5.0268858266871872e+00 0 0 0
404 14 2 -3.3568101402791575e+00 -3.8973907168803041e+00 5.0288383149663636e+00 0 0 0
696 24 2 -5.2125376936665404e+00 -2.3672280780548189e+00 4.2181132189212356e+00 0 0 0
697 24 2 -4.4695927403786397e+00 -2.2772637667689994e+00 4.8486708106056184e+00 0 0 0
405 14 2 -3.0630424742539462e+00 -4.2243693240134874e+00 5.8812571002785834e+00 0 0 0
755 26 2 -1.9209967316244228e-01 -4.0300741933578719e+00 3.8131616992239459e+00 0 0 0
757 26 2 -4.2900484116226201e-01 -3.6353671276395199e+00 5.1374073681206314e+00 0 0 0
756 26 2 -9.9453329647053024e-01 -3.7837485188512217e+00 4.3342725718466486e+00 0 0 0
1058 36 2 -1.4974167767118483e+00 -2.2149848919176924e+00 4.2464134188626108e+00 0 0 0
606 21 2 -7.8241798459987617e+00 -1.8633208059988164e+00 5.6458657424686738e+00 0 0 0
936 32 2 -7.1628983703715621e+00 -5.4631600658346613e-01 4.7700671178893694e+00 0 0 0
604 21 2 -7.7898309801577055e+00 -1.2147911613668290e+00 4.0020009393467841e+00 0 0 0
878 30 2 -6.0134300383052324e+00 -2.1002809165203251e+00 5.0568047262846232e+00 1 0 0
665 23 2 -5.4036324800312174e+00 -1.3569864047282039e+00 4.5245570896860352e+00 0 0 0
666 23 2 -5.7598084477958258e+00 -5.7295788533830949e-01 4.9690568936906381e+00 0 0 0
935 32 2 -6.9793603345057251e+00 -2.6520533769944060e-01 3.8741175757721100e+00 0 0 0
937 32 2 -6.9291681557088243e+00 9.1889086984543955e-02 5.5138050314545026e+00 0 0 0
698 24 2 -4.1649893645469120e+00 -1.7301373448374888e+00 5.6202854585681745e+00 0 0 0
1062 36 2 -2.5943778616269455e+00 -1.4111095124777120e+00 4.1614825838592715e+00 0 0 0
667 23 2 -4.8520962144097171e+00 -6.1270820551740701e-01 5.0317312701582626e+00 0 0 0
668 23 2 -4.3942948268278359e+00 -6.5844277641231919e-01 5.9075865016035163e+00 0 0 0
1070 36 2 -4.8229000340843065e-01 -2.8826850026130370e-02 4.1963589584038781e+00 0 0 0
1057 36 2 -9.1530106814757284e-01 -1.5374092594104740e+00 3.9391302960940919e+00 0 0 0
1056 36 2 9.4682531330876368e-02 -1.4549687669552274e+00 4.0288031957427020e+00 0 0 0
13 1 2 -6.7512953486156890e+00 -7.1975482409235285e+00 6.1801367863321328e+00 0 0 0
340 12 2 -5.3224045052160180e+00 -7.4079104755926286e+00 7.2848980999191530e+00 0 0 0
14 1 2 -6.1531381302913442e+00 -7.9922960895706794e+00 6.0543848014455115e+00 0 0 0
15 1 2 -6.4715539763622338e+00 -8.8479405143126346e+00 6.4826764640449319e+00 0 0 0
16 1 2 -7.0554427082016744e+00 -8.2607533487698106e+00 7.1343664615175042e+00 0 0 0
40 2 2 -5.2696270019433218e+00 -8.9679032865106585e+00 6.9770831043771544e+00 0 0 0
17 1 2 -7.1348206388921565e+00 -7.9147225381898716e+00 8.0643155871584860e+00 0 0 0
41 2 2 -4.6874065136174030e+00 -8.3081120112257754e+00 7.2884702314019156e+00 0 0 0
341 12 2 -5.0775389627184442e+00 -7.5754775366786173e+00 8.1332252185862473e+00 0 0 0
99 4 2 -2.9573603720812507e+00 -9.0716764747157264e+00 7.0415168322539996e+00 0 0 0
42 2 2 -4.0576657686884676e+00 -7.6872441319492992e+00 7.7625665164410309e+00 0 0 0
194 7 2 -8.9941611962735368e-01 -8.8100906034364250e+00 7.7626523460615644e+00 0 0 0
195 7 2 -1.4890597838340089e-01 -8.1716341004757940e+00 7.8273379076466556e+00 0 0 0
131 5 2 -1.1429263683393807e+00 -7.7681394631819165e+00 6.3262234287328942e+00 0 0 0
132 5 2 -1.1272802417361636e+00 -7.1966413431786806e+00 7.1233323318559680e+00 0 0 0
411 14 2 -2.0117897972525798e+00 -8.2640414087917797e+00 7.4979462126468874e+00 0 0 0
410 14 2 -2.3726567971291477e+00 -7.5348004994383775e+00 6.9582689225941028e+00 0 0 0
98 4 2 -2.4603394968016472e+00 -8.9710884194835536e+00 6.1722489987419387e+00 0 0 0
12 1 2 -6.4147846741830170e+00 -6.6674540380033038e+00 6.8952220856461821e+00 0 0 0
338 12 2 -5.5133543311834652e+00 -6.0534225811066680e+00 6.9115596611370469e+00 0 0 0
337 12 2 -5.9081262755535633e+00 -5.8124341235635972e+00 6.1020618715116317e+00 0 0 0
11 1 2 -7.2132440216088698e+00 -6.2914204270459999e+00 6.6056845206827601e+00 0 0 0
10 1 2 -7.3809335460428143e+00 -5.4652130306453888e+00 6.1994801196433373e+00 0 0 0
640 22 2 -5.3302539253311405e+00 -4.7497971547569247e+00 7.8451455861392256e+00 0 0 0
370 13 2 -6.7476674069171381e+00 -4.8211974700696674e+00 7.9884406439653457e+00 0 0 0
67 3 2 -4.5430904892966426e+00 -6.2689321078531499e+00 5.9397548371082136e+00 0 0 0
339 12 2 -5.1051186688165009e+00 -6.5575437566941419e+00 7.5750490369946526e+00 0 0 0
68 3 2 -4.1541241092159717e+00 -6.1640201430074741e+00 6.7951148300415287e+00 0 0 0
639 22 2 -5.0390859512355259e+00 -5.1888869883618334e+00 7.0208409014950970e+00 0 0 0
638 22 2 -4.8326873865548903e+00 -5.2920844717188080e+00 6.0023869814419033e+00 0 0 0
69 3 2 -4.0358185190976110e+00 -6.2727520010348181e+00 7.7918675409736107e+00 0 0 0
407 14 2 -2.9558443236421015e+00 -5.2385393145716286e+00 6.6756560764342963e+00 0 0 0
431 15 2 -1.1310705815081169e-01 -5.3357545492860998e+00 6.6564527006413350e+00 0 0 0
435 15 2 -6.8568958926505363e-01 -4.7314287660277721e+00 7.8319866473845776e+00 0 0 0
430 15 2 -8.6292541220878471e-01 -5.0122768261811439e+00 6.0132812056705580e+00 0 0 0
133 5 2 -8.0040791574185977e-01 -6.6107342897678647e+00 7.7897325347078752e+00 0 0 0
408 14 2 -2.1990719377089407e+00 -5.7009397003816202e+00 6.6279614037392651e+00 0 0 0
409 14 2 -2.2703569765936806e+00 -6.7350067841210306e+00 6.4892480113457998e+00 0 0 0
760 26 2 -1.5575175804669001e+00 -4.8876184235827171e+00 7.0873712713422101e+00 0 0 0
134 5 2 -8.2844584345751171e-01 -5.7415108555883627e+00 8.1545918276500657e+00 0 0 0
313 11 2 -7.3719701435401701e+00 -2.8112672979990445e+00 8.1554695782798099e+00 0 0 0
879 30 2 -5.7980991679187825e+00 -2.7199128855100492e+00 5.9701139558125318e+00 1 0 0
311 11 2 -7.8377919358191157e+00 -3.8798335841157114e+00 6.6409806334643697e+00 0 0 0
368 13 2 -6.1364327640171785e+00 -3.9473706693137465e+00 6.5057681292401259e+00 0 0 0
369 13 2 -6.1067735733886739e+00 -4.1523953483879170e+00 7.4775039393708855e+00 0 0 0
882 30 2 -5.2662707278750291e+00 -2.9481368764592712e+00 7.8678292710354176e+00 1 0 0
312 11 2 -7.7276490389274901e+00 -3.4937949245180637e+00 7.5855389739716159e+00 0 0 0
406 14 2 -3.2799096040622575e+00 -4.2581183948625272e+00 6.8755221241614501e+00 0 0 0
701 24 2 -3.8198497786314016e+00 -2.7398080571268122e+00 7.8015239378654240e+00 0 0 0
758 26 2 -5.6129895907556182e-01 -3.7720804268458981e+00 6.1051684771723727e+00 0 0 0
761 26 2 -1.7256078843481049e+00 -3.9918744012595724e+00 7.5482690945756445e+00 0 0 0
762 26 2 -2.5593636510263829e+00 -3.5668208659593570e+00 7.4649133363189328e+00 0 0 0
763 26 2 -1.9007992644660476e+00 -2.9878835506067447e+00 7.7763764916539788e+00 0 0 0
759 26 2 -1.0523375886484667e+00 -4.1016239175517191e+00 6.8744039584201602e+00 0 0 0
938 32 2 -6.6850562741566231e+00 -3.2380413557021925e-01 6.3361231773133389e+00 0 0 0
928 31 2 -6.8851755920111808e+00 -1.1320860267753556e+00 7.7590243199308881e+00 0 0 0
607 21 2 -7.8478366963462998e+00 -1.5721819618251676e+00 6.4970926829745252e+00 0 0 0
927 31 2 -7.5470721273023518e+00 -7.5888407653577450e-01 7.0870477801093177e+00 0 0 0
880 30 2 -5.5821314376722571e+00 -2.0745665490279337e+00 6.5837629749057225e+00 1 0 0
940 32 2 -5.6411445624434204e+00 -2.3452534276012973e-01 7.4908798712974525e+00 0 0 0
939 32 2 -5.9896379580097667e+00 -8.9786451894901820e-01 6.8755038307376077e+00 0 0 0
881 30 2 -5.0791350637477297e+00 -2.1549449161139562e+00 7.3235149052040640e+00 1 0 0
699 24 2 -4.5137526712254861e+00 -1.6894465236210547e+00 6.5703805728575801e+00 0 0 0
700 24 2 -3.9176439703202610e+00 -1.9799121069943939e+00 7.2047613811772422e+00 0 0 0
2101 361 5 -3.1247894724970465e-01 -6.4582180252731358e-01 7.1027544543636489e+00 0 0 0
18 1 2 -7.7716943821415541e+00 -7.8146791135401026e+00 8.8029331873412904e+00 0 0 0
1511 51 2 -5.6729091142911061e+00 -8.8581898975420685e+00 8.7219111672978205e+00 0 1 0
343 12 2 -5.6495389137063485e+00 -6.8865676062865013e+00 9.8273217430526483e+00 0 0 0
416 14 2 -3.1157589398467973e+00 -8.5894521496853304e+00 9.7236304118362415e+00 0 0 0
415 14 2 -3.0958691312766295e+00 -8.3507471343644681e+00 8.8171176643769460e+00 0 0 0
43 2 2 -4.1229456889556371e+00 -8.0602268242619193e+00 8.6346424819620431e+00 0 0 0
44 2 2 -4.4939043857193761e+00 -8.1828091924564461e+00 9.4928219898158162e+00 0 0 0
414 14 2 -2.7226511597261545e+00 -7.5478413999331195e+00 9.1843464828416437e+00 0 0 0
46 2 2 -3.9016656365739473e+00 -6.9773206768103080e+00 1.0214192474073860e+01 0 0 0
344 12 2 -5.2069559521052593e+00 -7.5456111994360118e+00 1.0395043809823266e+01 0 0 0
342 12 2 -5.1735260282692241e+00 -7.1266780165674035e+00 8.9855150590330641e+00 0 0 0
45 2 2 -3.6808392815138866e+00 -7.7004659585045969e+00 9.5232753792576261e+00 0 0 0
443 15 2 -8.6829761466983446e-01 -7.3445778168072220e+00 1.0334067053936106e+01 0 0 0
198 7 2 -6.8012349637863970e-02 -8.8874919335430160e+00 9.8603665223989854e+00 0 0 0
420 14 3 -1.8491185320447103e+00 -7.9373126662127840e+00 1.0053382307456467e+01 0 0 0
444 15 2 -5.3111283536516854e-02 -6.8035935905735467e+00 9.9620659084352905e+00 0 0 0
197 7 2 -2.8522551606565333e-01 -8.1268061258140047e+00 9.3499862537416867e+00 0 0 0
196 7 2 -7.7357533278172841e-01 -8.2426730304869000e+00 8.4983326216348374e+00 0 0 0
417 14 2 -2.2209410483695491e+00 -8.8970079388454231e+00 9.9453302734507094e+00 0 0 0
412 14 2 -1.5963307265656310e+00 -7.6621048657074882e+00 8.1825970431011257e+00 0 0 0
413 14 2 -2.4015720023665126e+00 -7.1397982018577393e+00 8.3627401745846246e+00 0 0 0
644 22 2 -6.7278194854600946e+00 -5.4890190579482985e+00 1.0167172508361851e+01 0 0 0
371 13 2 -7.5500453223350963e+00 -4.7039406434159394e+00 8.5785648886335419e+00 0 0 0
643 22 2 -6.2368799313272847e+00 -5.2628692787509435e+00 9.3157342247414263e+00 0 0 0
641 22 2 -5.5782612825415523e+00 -5.3264285009750090e+00 8.5841093865702494e+00 0 0 0
70 3 2 -3.3093804655351282e+00 -6.6091535150303997e+00 8.3903328746082586e+00 0 0 0
71 3 2 -3.0870140604479106e+00 -5.9330887158866661e+00 8.9740405594439849e+00 0 0 0
72 3 2 -3.6545565623117273e+00 -6.0296328009518989e+00 9.8086654685524852e+00 0 0 0
886 30 2 -4.5165164878369266e+00 -4.6260718887474068e+00 9.8206826769143767e+00 1 0 0
439 15 2 -1.3322103532679601e+00 -5.6524001053557358e+00 9.1830573467438494e+00 0 0 0
441 15 2 -2.0212369235908048e+00 -6.3646194877416447e+00 1.0239717339109852e+01 0 0 0
438 15 2 -7.2752447846221813e-01 -4.7822092790868318e+00 9.1810760447677673e+00 0 0 0
440 15 2 -2.0872241768095576e+00 -6.2449482457968628e+00 9.2970380040738156e+00 0 0 0
135 5 2 -1.1852462226531821e-01 -5.5639043143042457e+00 8.7596907930439869e+00 0 0 0
945 32 2 -5.9048649433768770e+00 -2.6471560539030419e+00 9.6682735905464519e+00 0 0 0
314 11 2 -6.6126186273491774e+00 -2.9549417295160660e+00 8.6760374120100909e+00 0 0 0
316 11 2 -7.6544723987185739e+00 -3.5502024482893608e+00 1.0033834566602295e+01 0 0 0
315 11 2 -6.8557978430803512e+00 -3.2104628404180273e+00 9.5655040769891766e+00 0 0 0
884 30 2 -5.2538602479431962e+00 -3.4948058706627103e+00 9.4680897392342995e+00 1 0 0
642 22 2 -5.7561809855835042e+00 -4.4811206725181707e+00 8.9043963134605963e+00 0 0 0
704 24 2 -2.6394905084649949e+00 -3.1382297453954435e+00 9.9495538886114065e+00 0 0 0
703 24 2 -3.2647795760091562e+00 -3.2873998006332625e+00 9.2242442472134503e+00 0 0 0
947 32 2 -4.0651273906771301e+00 -2.2564289595193832e+00 9.9708152880428553e+00 0 0 0
946 32 2 -4.9799264503489669e+00 -2.5040790600175500e+00 9.9218023756811728e+00 0 0 0
885 30 2 -4.3674956003290868e+00 -3.6645386141748770e+00 9.6884665770597120e+00 1 0 0
702 24 2 -3.9222410805158732e+00 -2.7163552062273228e+00 8.7707266847956706e+00 0 0 0
883 30 2 -5.2113076705817045e+00 -3.6662417295587511e+00 8.4836446388713220e+00 1 0 0
437 15 2 -1.4121049322540848e+00 -4.3376508081860061e+00 8.6281050916843167e+00 0 0 0
766 26 2 -7.8495658409429792e-01 -3.2320073339373434e+00 1.0347997408862248e+01 0 0 0
764 26 2 -1.4499310912163037e+00 -3.0491068847178129e+00 8.6477821377716477e+00 0 0 0
436 15 2 -6.5522866576155192e-01 -3.8109790664920866e+00 8.3487320087318793e+00 0 0 0
765 26 2 -1.3322314693875257e+00 -3.1243560160887789e+00 9.6007788990831244e+00 0 0 0
943 32 2 -5.7287438700656805e+00 -9.1995779173171710e-01 9.9424349242354868e+00 0 0 0
929 31 2 -6.5168570178724305e+00 -3.6387617496029689e-01 8.1945657171112973e+00 0 0 0
922 31 2 -7.3489555665436965e+00 -9.3342773967037795e-01 8.9584466974044812e+00 0 0 0
941 32 2 -5.5074780822727565e+00 -6.5307198307452941e-01 8.3369394157966372e+00 0 0 0
921 31 2 -6.9774767776954327e+00 -2.7833505827745519e-01 9.5476069748390096e+00 0 0 0
944 32 2 -6.1891840131600464e+00 -1.7359168007387666e+00 9.8514951316957227e+00 0 0 0
567 19 2 -2.5777236331663680e+00 -1.0459870473953934e+00 9.7628557221786085e+00 0 0 0