LAMMPS Data file of a single chain

40 atoms
39 bonds

3 atom types
1 bond types

0.0 160.0 xlo xhi
0.0 160.0 ylo yhi
0.0 160.0 zlo zhi

Masses

1 1.0
2 1.0
3 1.0

Atoms # id mol type x y z

 1    1     2  40.000  0.0  0.0
 2    1     1  40.965  0.0  0.0
 3    1     1  41.930  0.0  0.0
 4    1     1  42.895  0.0  0.0
 5    1     1  43.860  0.0  0.0
 6    1     1  44.825  0.0  0.0
 7    1     1  45.790  0.0  0.0
 8    1     1  46.755  0.0  0.0
 9    1     1  47.720  0.0  0.0
10    1     1  48.685  0.0  0.0
11    1     1  49.650  0.0  0.0
12    1     1  50.615  0.0  0.0
13    1     1  51.580  0.0  0.0
14    1     1  52.545  0.0  0.0
15    1     1  53.510  0.0  0.0
16    1     1  54.475  0.0  0.0
17    1     1  55.440  0.0  0.0
18    1     1  56.405  0.0  0.0
19    1     1  57.370  0.0  0.0
20    1     1  58.335  0.0  0.0
21    1     1  59.300  0.0  0.0
22    1     1  60.265  0.0  0.0
23    1     1  61.230  0.0  0.0
24    1     1  62.195  0.0  0.0
25    1     1  63.160  0.0  0.0
26    1     1  64.125  0.0  0.0
27    1     1  65.090  0.0  0.0
28    1     1  66.055  0.0  0.0
29    1     1  67.020  0.0  0.0
30    1     1  67.985  0.0  0.0
31    1     1  68.950  0.0  0.0
32    1     1  69.915  0.0  0.0
33    1     1  70.880  0.0  0.0
34    1     1  71.845  0.0  0.0
35    1     1  72.810  0.0  0.0
36    1     1  73.775  0.0  0.0
37    1     1  74.740  0.0  0.0
38    1     1  75.705  0.0  0.0
39    1     1  76.670  0.0  0.0
40    1     3  77.635  0.0  0.0

Bonds

 1 1  1  2
 2 1  2  3
 3 1  3  4
 4 1  4  5
 5 1  5  6
 6 1  6  7
 7 1  7  8
 8 1  8  9
 9 1  9 10
10 1 10 11
11 1 11 12
12 1 12 13
13 1 13 14
14 1 14 15
15 1 15 16
16 1 16 17
17 1 17 18
18 1 18 19
19 1 19 20
20 1 20 21
21 1 21 22
22 1 22 23
23 1 23 24
24 1 24 25
25 1 25 26
26 1 26 27
27 1 27 28
28 1 28 29
29 1 29 30
30 1 30 31
31 1 31 32
32 1 32 33
33 1 33 34
34 1 34 35
35 1 35 36
36 1 36 37
37 1 37 38
38 1 38 39
39 1 39 40
