ITEM: TIMESTEP
0
ITEM: NUMBER OF ATOMS
30
ITEM: BOX BOUNDS pp pp pp
-5.7758099999999999e+00 5.7758099999999999e+00
-5.7758099999999999e+00 5.7758099999999999e+00
-5.7758099999999999e+00 5.7758099999999999e+00
ITEM: ATOMS id mol type xu yu zu 
1 1 1 -0.115456 16.4493 -18.1 
2 1 1 0.414768 17.1373 -18.501 
3 1 1 0.734644 16.2791 -18.7061 
4 1 1 0.567101 15.3498 -18.8839 
5 1 1 0.224694 14.873 -19.6376 
6 1 1 -0.00249664 13.9462 -19.7776 
7 1 1 -0.061236 13.4671 -18.9593 
8 1 1 -0.172589 12.8201 -18.2695 
9 1 1 0.38451 12.8895 -17.5124 
10 1 1 1.25493 12.609 -17.2701 
11 1 1 1.58862 12.655 -16.3847 
12 1 1 2.40796 13.1931 -16.2924 
13 1 1 2.20974 14.0746 -16.6762 
14 1 1 2.92629 14.7444 -16.772 
15 1 1 3.1933 15.5684 -16.3361 
16 1 1 3.12492 16.4007 -15.8329 
17 1 1 2.36347 16.4071 -15.2484 
18 1 1 1.7071 16.5488 -15.8619 
19 1 1 1.5937 17.1754 -16.6689 
20 1 1 1.62416 17.1099 -17.6359 
21 1 1 2.03145 16.2834 -17.8531 
22 1 1 1.80141 15.3616 -17.7678 
23 1 1 2.22855 14.8992 -18.4914 
24 1 1 2.45422 14.0683 -18.0809 
25 1 1 1.67022 13.4995 -18.2587 
26 1 1 1.61117 13.4712 -19.2168 
27 1 1 1.8256 14.0888 -19.9156 
28 1 1 1.83315 15.007 -19.9079 
29 1 1 2.14861 15.8999 -19.9643 
30 1 1 1.54317 16.3405 -20.5155 
ITEM: TIMESTEP
1000
ITEM: NUMBER OF ATOMS
30
ITEM: BOX BOUNDS pp pp pp
-5.7758099999999999e+00 5.7758099999999999e+00
-5.7758099999999999e+00 5.7758099999999999e+00
-5.7758099999999999e+00 5.7758099999999999e+00
ITEM: ATOMS id mol type xu yu zu 
1 1 1 -0.521961 16.7147 -18.2326 
2 1 1 0.353575 16.9701 -18.6017 
3 1 1 0.304057 16.0224 -18.4406 
4 1 1 0.394526 15.3591 -19.136 
5 1 1 0.445489 14.4094 -19.3319 
6 1 1 -0.355833 13.8291 -19.4482 
7 1 1 0.152686 12.995 -19.3843 
8 1 1 -0.11877 12.6535 -18.521 
9 1 1 0.376516 12.515 -17.6905 
10 1 1 1.09509 12.4138 -17.0479 
11 1 1 1.81502 12.9036 -16.6431 
12 1 1 2.76664 12.8219 -16.7117 
13 1 1 2.45702 13.7279 -16.7836 
14 1 1 2.7414 14.6312 -17.0003 
15 1 1 3.2032 15.464 -16.8722 
16 1 1 3.02528 15.6023 -15.9411 
17 1 1 2.06027 15.6904 -15.9018 
18 1 1 1.79952 16.5857 -15.6556 
19 1 1 1.44506 16.575 -16.6185 
20 1 1 1.48544 16.9069 -17.5013 
21 1 1 2.08706 16.1488 -17.8421 
22 1 1 1.66636 15.3592 -18.2972 
23 1 1 2.35648 14.7447 -18.6559 
24 1 1 2.30043 13.8034 -18.4282 
25 1 1 1.37636 13.775 -18.5461 
26 1 1 1.69614 13.4766 -19.4054 
27 1 1 1.77477 13.7855 -20.3153 
28 1 1 1.90699 14.7301 -20.1949 
29 1 1 1.63351 15.6151 -20.4651 
30 1 1 1.62331 16.5028 -20.1765 
ITEM: TIMESTEP
2000
ITEM: NUMBER OF ATOMS
30
ITEM: BOX BOUNDS pp pp pp
-5.7758099999999999e+00 5.7758099999999999e+00
-5.7758099999999999e+00 5.7758099999999999e+00
-5.7758099999999999e+00 5.7758099999999999e+00
ITEM: ATOMS id mol type xu yu zu 
1 1 1 -0.900893 17.0454 -19.025 
2 1 1 -0.0220202 16.8852 -18.5584 
3 1 1 0.436518 16.1338 -18.2165 
4 1 1 0.887526 15.5709 -18.8902 
5 1 1 1.22073 14.7046 -19.1341 
6 1 1 0.412158 14.1571 -18.8319 
7 1 1 0.277091 13.246 -19.0519 
8 1 1 -0.175603 12.7872 -18.316 
9 1 1 0.331 12.9494 -17.4988 
10 1 1 1.10542 12.4762 -17.2718 
11 1 1 1.9652 12.8443 -17.2921 
12 1 1 2.67805 13.3047 -16.8168 
13 1 1 2.358 14.239 -16.9216 
14 1 1 3.08626 14.7427 -16.5862 
15 1 1 3.49975 15.5857 -16.6988 
16 1 1 2.58728 15.7969 -16.6673 
17 1 1 1.65091 15.5148 -16.4526 
18 1 1 1.82039 16.3506 -15.9622 
19 1 1 1.43945 16.9952 -16.5234 
20 1 1 1.55665 17.1086 -17.4864 
21 1 1 1.92621 16.5619 -18.1975 
22 1 1 2.0653 15.6006 -18.1538 
23 1 1 2.60756 14.799 -18.1991 
24 1 1 2.39411 14.0273 -18.7015 
25 1 1 1.91097 13.2581 -19.0268 
26 1 1 1.86572 13.0289 -19.9529 
27 1 1 1.72865 13.7763 -20.5271 
28 1 1 1.85606 14.7408 -20.4799 
29 1 1 1.05809 15.2072 -20.7594 
30 1 1 1.22347 16.0972 -21.1922 
ITEM: TIMESTEP
3000
ITEM: NUMBER OF ATOMS
30
ITEM: BOX BOUNDS pp pp pp
-5.7758099999999999e+00 5.7758099999999999e+00
-5.7758099999999999e+00 5.7758099999999999e+00
-5.7758099999999999e+00 5.7758099999999999e+00
ITEM: ATOMS id mol type xu yu zu 
1 1 1 -1.02763 17.0669 -18.6258 
2 1 1 -0.277917 16.4894 -18.6402 
3 1 1 0.601735 16.276 -18.8378 
4 1 1 0.700172 15.3306 -18.9659 
5 1 1 0.960693 14.4949 -19.4243 
6 1 1 0.398971 13.8098 -19.65 
7 1 1 0.184803 12.8918 -19.4058 
8 1 1 -0.428371 12.9583 -18.6606 
9 1 1 0.384264 12.9462 -18.1564 
10 1 1 1.08328 12.7138 -17.5815 
11 1 1 2.00258 12.5851 -17.3455 
12 1 1 2.48082 13.4078 -17.4149 
13 1 1 2.23011 14.2673 -17.1703 
14 1 1 3.01111 14.7809 -17.0855 
15 1 1 3.49015 15.2967 -16.4388 
16 1 1 2.60245 15.5506 -16.412 
17 1 1 1.75693 15.8839 -16.6291 
18 1 1 1.74774 16.7795 -16.3245 
19 1 1 1.26776 17.4333 -16.901 
20 1 1 1.34846 17.2555 -17.8322 
21 1 1 1.9801 16.553 -17.9888 
22 1 1 2.1609 15.6746 -18.3117 
23 1 1 2.30681 14.7337 -18.5182 
24 1 1 2.26961 13.7983 -18.7928 
25 1 1 1.60112 13.1569 -19.0659 
26 1 1 1.58708 13.1034 -20.0226 
27 1 1 1.43908 13.5293 -20.8674 
28 1 1 1.65953 14.4144 -20.6595 
29 1 1 0.892423 14.9886 -20.5386 
30 1 1 1.17718 15.8429 -20.932 
ITEM: TIMESTEP
4000
ITEM: NUMBER OF ATOMS
30
ITEM: BOX BOUNDS pp pp pp
-5.7758099999999999e+00 5.7758099999999999e+00
-5.7758099999999999e+00 5.7758099999999999e+00
-5.7758099999999999e+00 5.7758099999999999e+00
ITEM: ATOMS id mol type xu yu zu 
1 1 1 -0.816154 16.7092 -18.2668 
2 1 1 0.153911 16.608 -18.3402 
3 1 1 0.880001 16.1191 -18.6975 
4 1 1 0.835626 15.3207 -19.2786 
5 1 1 0.782187 14.4501 -18.9296 
6 1 1 0.149023 13.7359 -18.9739 
7 1 1 -0.105273 12.9337 -19.3601 
8 1 1 -0.259269 12.357 -18.6142 
9 1 1 0.596386 12.6647 -18.2901 
10 1 1 1.24664 12.7117 -17.6099 
11 1 1 2.15132 12.4884 -17.3052 
12 1 1 2.80731 13.1474 -17.4603 
13 1 1 2.72186 13.7863 -16.7543 
14 1 1 3.45069 14.351 -16.9894 
15 1 1 3.72864 15.2144 -16.7401 
16 1 1 2.81136 15.1305 -16.6029 
17 1 1 2.02067 15.6513 -16.7867 
18 1 1 2.17461 16.587 -16.7553 
19 1 1 1.32919 17.0553 -16.713 
20 1 1 1.63329 16.8458 -17.6244 
21 1 1 2.24151 16.4485 -18.263 
22 1 1 2.50511 15.5993 -18.5983 
23 1 1 2.68285 14.7059 -18.3555 
24 1 1 2.2552 13.9191 -18.7236 
25 1 1 2.02007 12.9901 -18.88 
26 1 1 1.46296 13.0276 -19.6381 
27 1 1 1.249 13.6477 -20.3182 
28 1 1 1.69672 14.5059 -20.2771 
29 1 1 1.41901 15.2741 -20.8304 
30 1 1 1.78411 16.1416 -21.1013 
ITEM: TIMESTEP
5000
ITEM: NUMBER OF ATOMS
30
ITEM: BOX BOUNDS pp pp pp
-5.7758099999999999e+00 5.7758099999999999e+00
-5.7758099999999999e+00 5.7758099999999999e+00
-5.7758099999999999e+00 5.7758099999999999e+00
ITEM: ATOMS id mol type xu yu zu 
1 1 1 -1.21488 17.3221 -18.4867 
2 1 1 -0.474688 16.744 -18.3858 
3 1 1 0.381655 16.3859 -18.2525 
4 1 1 0.805047 15.732 -18.8662 
5 1 1 0.743524 14.8 -19.0838 
6 1 1 0.652743 13.8577 -19.297 
7 1 1 0.283724 12.9762 -19.3982 
8 1 1 -0.15764 12.8489 -18.5163 
9 1 1 0.476787 12.3937 -17.9108 
10 1 1 1.27829 12.9094 -17.866 
11 1 1 1.93568 13.0855 -17.1671 
12 1 1 2.78002 13.1271 -17.5186 
13 1 1 3.29331 13.731 -16.9786 
14 1 1 3.55554 14.5268 -17.517 
15 1 1 3.10154 15.2681 -17.0632 
16 1 1 2.22858 14.903 -16.9266 
17 1 1 1.9627 15.8125 -16.8475 
18 1 1 1.80818 16.6567 -16.4598 
19 1 1 1.37753 17.425 -16.7989 
20 1 1 1.62385 17.6218 -17.6596 
21 1 1 2.04035 16.8264 -17.9751 
22 1 1 2.45684 16.0595 -18.3826 
23 1 1 2.31766 15.1506 -18.701 
24 1 1 2.50803 14.1807 -18.6349 
25 1 1 2.82838 13.4134 -19.1217 
26 1 1 2.08168 13.2172 -19.6388 
27 1 1 1.64606 13.8898 -20.1428 
28 1 1 1.88337 14.816 -20.0334 
29 1 1 1.76702 15.6929 -20.4174 
30 1 1 1.74041 16.1036 -21.3099 
ITEM: TIMESTEP
6000
ITEM: NUMBER OF ATOMS
30
ITEM: BOX BOUNDS pp pp pp
-5.7758099999999999e+00 5.7758099999999999e+00
-5.7758099999999999e+00 5.7758099999999999e+00
-5.7758099999999999e+00 5.7758099999999999e+00
ITEM: ATOMS id mol type xu yu zu 
1 1 1 -1.07336 16.2219 -17.7273 
2 1 1 -0.131094 16.484 -17.8046 
3 1 1 0.681539 16.3188 -18.3585 
4 1 1 0.792283 15.6014 -19.0234 
5 1 1 0.783321 14.6646 -19.2425 
6 1 1 1.0231 13.8007 -19.5323 
7 1 1 0.574503 12.9854 -19.4662 
8 1 1 0.351715 12.4137 -18.7537 
9 1 1 0.388703 12.7775 -17.8271 
10 1 1 1.33278 12.854 -17.7461 
11 1 1 2.04094 13.3612 -17.3547 
12 1 1 2.98992 13.3755 -17.2112 
13 1 1 3.71666 13.966 -17.304 
14 1 1 3.46662 14.8109 -17.6334 
15 1 1 2.68135 14.8606 -17.103 
16 1 1 1.85223 15.2979 -16.9316 
17 1 1 1.40934 16.1218 -16.7648 
18 1 1 1.70666 17.0353 -16.7546 
19 1 1 1.40237 17.5888 -17.4925 
20 1 1 2.10602 17.4302 -18.0695 
21 1 1 2.46258 16.5325 -18.0343 
22 1 1 2.3274 15.6742 -18.4099 
23 1 1 1.98669 14.754 -18.4706 
24 1 1 2.64469 14.0729 -18.5595 
25 1 1 3.10067 13.3192 -19.0058 
26 1 1 2.51296 13.1916 -19.6879 
27 1 1 2.2298 14.1203 -19.9939 
28 1 1 1.77748 14.8608 -20.3807 
29 1 1 1.99626 15.6835 -20.0093 
30 1 1 1.92181 16.2872 -20.736 
ITEM: TIMESTEP
7000
ITEM: NUMBER OF ATOMS
30
ITEM: BOX BOUNDS pp pp pp
-5.7758099999999999e+00 5.7758099999999999e+00
-5.7758099999999999e+00 5.7758099999999999e+00
-5.7758099999999999e+00 5.7758099999999999e+00
ITEM: ATOMS id mol type xu yu zu 
1 1 1 -0.780953 16.4117 -17.7415 
2 1 1 0.141507 16.7287 -17.7653 
3 1 1 0.607441 16.309 -18.5219 
4 1 1 0.761747 15.3436 -18.5809 
5 1 1 0.647229 14.5057 -19.059 
6 1 1 1.09733 13.6498 -19.147 
7 1 1 0.638136 12.8638 -19.3735 
8 1 1 0.0672007 12.559 -18.6811 
9 1 1 0.513349 12.7927 -17.8064 
10 1 1 1.49336 12.7425 -17.8386 
11 1 1 1.79522 13.6349 -17.6952 
12 1 1 2.62874 13.9849 -17.4269 
13 1 1 3.57167 14.1006 -17.6657 
14 1 1 3.69924 15.0407 -17.4595 
15 1 1 3.00769 15.2816 -16.852 
16 1 1 2.14799 15.5692 -17.0081 
17 1 1 1.48496 16.2908 -17.0186 
18 1 1 1.12423 17.1855 -16.8255 
19 1 1 1.35272 17.9029 -17.3969 
20 1 1 1.98443 17.7243 -18.0694 
21 1 1 2.3825 16.9619 -18.4751 
22 1 1 2.39666 15.9702 -18.4815 
23 1 1 2.32677 15.1271 -18.9155 
24 1 1 2.55254 14.2098 -18.8069 
25 1 1 2.533 13.265 -18.9991 
26 1 1 2.42731 13.0522 -19.909 
27 1 1 2.01639 13.7264 -20.4102 
28 1 1 1.50918 14.5296 -20.3625 
29 1 1 2.0686 15.3144 -20.149 
30 1 1 1.79397 16.1568 -20.489 
ITEM: TIMESTEP
8000
ITEM: NUMBER OF ATOMS
30
ITEM: BOX BOUNDS pp pp pp
-5.7758099999999999e+00 5.7758099999999999e+00
-5.7758099999999999e+00 5.7758099999999999e+00
-5.7758099999999999e+00 5.7758099999999999e+00
ITEM: ATOMS id mol type xu yu zu 
1 1 1 -0.419108 15.8831 -17.87 
2 1 1 0.465781 16.2203 -17.7621 
3 1 1 0.702168 16.5131 -18.6372 
4 1 1 1.14549 15.7165 -18.9668 
5 1 1 0.725677 14.852 -18.9171 
6 1 1 0.650934 13.9077 -19.0048 
7 1 1 0.899022 12.9943 -19.2451 
8 1 1 0.537815 12.2419 -18.7564 
9 1 1 1.16426 12.1475 -18.0382 
10 1 1 1.471 13.0539 -17.8064 
11 1 1 1.83451 13.8795 -17.4064 
12 1 1 2.75461 13.6594 -17.3881 
13 1 1 3.48284 14.1022 -17.7514 
14 1 1 3.7058 14.8636 -17.2501 
15 1 1 3.09832 15.5973 -16.98 
16 1 1 2.26347 15.7304 -17.3717 
17 1 1 2.05067 16.5309 -16.8567 
18 1 1 1.37974 17.246 -16.7332 
19 1 1 1.37654 17.6246 -17.6276 
20 1 1 2.23285 17.6307 -18.1035 
21 1 1 2.27504 17.1524 -18.972 
22 1 1 2.66397 16.3793 -18.6721 
23 1 1 2.78112 15.4843 -18.892 
24 1 1 2.26915 14.6966 -18.6989 
25 1 1 2.20916 13.7635 -18.9701 
26 1 1 2.35899 13.3711 -19.8332 
27 1 1 1.58619 13.9387 -20.0841 
28 1 1 1.6974 14.7431 -20.5517 
29 1 1 2.46881 15.3051 -20.3483 
30 1 1 2.55097 16.2892 -20.2345 
ITEM: TIMESTEP
9000
ITEM: NUMBER OF ATOMS
30
ITEM: BOX BOUNDS pp pp pp
-5.7758099999999999e+00 5.7758099999999999e+00
-5.7758099999999999e+00 5.7758099999999999e+00
-5.7758099999999999e+00 5.7758099999999999e+00
ITEM: ATOMS id mol type xu yu zu 
1 1 1 -0.588731 15.898 -18.1081 
2 1 1 0.0724178 16.5785 -17.8114 
3 1 1 0.778765 16.2428 -18.3233 
4 1 1 0.356717 15.6596 -18.9937 
5 1 1 0.426578 14.7068 -18.7718 
6 1 1 0.68222 13.84 -19.1806 
7 1 1 0.307584 12.9662 -19.4531 
8 1 1 0.579887 12.5283 -18.6359 
9 1 1 1.41384 12.7338 -18.1785 
10 1 1 1.20468 13.5419 -17.7192 
11 1 1 1.81613 14.2075 -17.2466 
12 1 1 2.66575 14.0409 -16.8078 
13 1 1 3.47826 13.9844 -17.3172 
14 1 1 3.99716 14.7166 -17.0346 
15 1 1 3.48861 15.5628 -17.0939 
16 1 1 2.67161 15.9449 -17.3931 
17 1 1 1.77192 16.0443 -17.0901 
18 1 1 1.3226 16.8529 -16.8355 
19 1 1 1.40853 17.4464 -17.5604 
20 1 1 2.30006 17.3097 -17.8693 
21 1 1 2.51158 16.9754 -18.765 
22 1 1 2.89768 16.1001 -18.7657 
23 1 1 2.11183 15.5861 -19.0685 
24 1 1 1.92822 14.76 -18.6437 
25 1 1 2.19851 13.9389 -18.986 
26 1 1 2.08912 13.4038 -19.753 
27 1 1 1.70568 14.1349 -20.2756 
28 1 1 1.83198 15.0309 -20.587 
29 1 1 2.63061 15.5264 -20.5504 
30 1 1 2.44346 16.447 -20.3079 
ITEM: TIMESTEP
10000
ITEM: NUMBER OF ATOMS
30
ITEM: BOX BOUNDS pp pp pp
-5.7758099999999999e+00 5.7758099999999999e+00
-5.7758099999999999e+00 5.7758099999999999e+00
-5.7758099999999999e+00 5.7758099999999999e+00
ITEM: ATOMS id mol type xu yu zu 
1 1 1 -0.958663 16.3252 -18.1917 
2 1 1 -0.0545045 16.1001 -18.3782 
3 1 1 0.812526 15.8977 -18.8553 
4 1 1 0.216634 15.2966 -19.2741 
5 1 1 0.191833 14.5363 -18.7174 
6 1 1 0.402645 13.6618 -19.1423 
7 1 1 0.557712 12.8685 -19.6873 
8 1 1 0.517422 12.1961 -18.9612 
9 1 1 0.906301 12.6361 -18.2169 
10 1 1 0.88143 13.497 -17.741 
11 1 1 1.43199 14.1758 -17.3286 
12 1 1 2.17601 14.1699 -16.7666 
13 1 1 3.05994 14.0896 -17.1426 
14 1 1 3.82246 14.6747 -17.0424 
15 1 1 3.33934 15.4731 -16.8903 
16 1 1 2.36958 15.6523 -16.8147 
17 1 1 1.65918 15.8553 -17.4101 
18 1 1 1.0464 16.4715 -17.0646 
19 1 1 1.28706 17.3617 -17.2805 
20 1 1 2.03591 17.3458 -17.8768 
21 1 1 2.16414 17.1615 -18.83 
22 1 1 2.70845 16.3631 -19.011 
23 1 1 2.27042 15.5804 -18.7312 
24 1 1 1.783 14.7688 -18.7849 
25 1 1 1.70372 13.8376 -18.9427 
26 1 1 1.73465 13.7684 -19.9374 
27 1 1 1.20717 14.4731 -20.3024 
28 1 1 1.76465 14.9754 -20.8908 
29 1 1 2.39375 15.6877 -20.772 
30 1 1 1.61845 16.1115 -20.3752 
ITEM: TIMESTEP
11000
ITEM: NUMBER OF ATOMS
30
ITEM: BOX BOUNDS pp pp pp
-5.7758099999999999e+00 5.7758099999999999e+00
-5.7758099999999999e+00 5.7758099999999999e+00
-5.7758099999999999e+00 5.7758099999999999e+00
ITEM: ATOMS id mol type xu yu zu 
1 1 1 -1.1645 15.8469 -17.8639 
2 1 1 -0.59415 16.3208 -18.4764 
3 1 1 0.283376 16.366 -18.8407 
4 1 1 0.145572 15.6092 -19.5109 
5 1 1 0.28873 14.789 -19.0941 
6 1 1 0.162368 13.8099 -19.0768 
7 1 1 0.274192 12.8371 -19.1236 
8 1 1 0.94098 12.3466 -18.5771 
9 1 1 1.60382 12.6864 -17.9414 
10 1 1 1.12175 13.4969 -17.7297 
11 1 1 1.58165 13.9027 -17.013 
12 1 1 2.1249 13.8015 -16.2119 
13 1 1 3.07249 13.7534 -16.4188 
14 1 1 3.49627 14.6032 -16.3498 
15 1 1 3.40716 15.4477 -16.636 
16 1 1 2.60326 15.9105 -16.8895 
17 1 1 1.86597 15.5403 -17.3863 
18 1 1 1.00344 15.9727 -17.2409 
19 1 1 1.17385 16.8665 -17.4607 
20 1 1 2.00161 17.0541 -17.9098 
21 1 1 2.7209 16.945 -18.5656 
22 1 1 3.12657 16.1164 -18.5096 
23 1 1 2.42328 15.5848 -18.9523 
24 1 1 1.80049 14.9509 -19.3223 
25 1 1 1.62486 14.0349 -18.9738 
26 1 1 1.43496 13.5616 -19.8642 
27 1 1 1.18836 14.1948 -20.5423 
28 1 1 1.92342 14.7139 -20.9024 
29 1 1 1.86607 15.6714 -20.8209 
30 1 1 1.57641 16.2707 -20.1151 
ITEM: TIMESTEP
12000
ITEM: NUMBER OF ATOMS
30
ITEM: BOX BOUNDS pp pp pp
-5.7758099999999999e+00 5.7758099999999999e+00
-5.7758099999999999e+00 5.7758099999999999e+00
-5.7758099999999999e+00 5.7758099999999999e+00
ITEM: ATOMS id mol type xu yu zu 
1 1 1 -0.840085 16.0652 -18.0626 
2 1 1 0.0155819 16.4819 -18.2605 
3 1 1 0.160313 16.391 -19.191 
4 1 1 0.617796 15.5684 -19.3707 
5 1 1 0.443635 14.6381 -19.3202 
6 1 1 0.26793 13.7057 -19.0516 
7 1 1 0.311943 12.8549 -19.4709 
8 1 1 0.635485 12.3348 -18.702 
9 1 1 1.42384 12.8581 -18.4284 
10 1 1 1.40287 13.6933 -17.9293 
11 1 1 1.53591 13.5856 -16.9873 
12 1 1 1.79464 13.5435 -16.0849 
13 1 1 2.70279 13.8998 -15.9064 
14 1 1 3.43979 14.5105 -15.7122 
15 1 1 3.65348 15.0737 -16.4579 
16 1 1 2.77159 15.4047 -16.6941 
17 1 1 2.1197 15.4147 -17.3968 
18 1 1 1.37908 16.0252 -17.2625 
19 1 1 1.46423 16.9272 -17.6075 
20 1 1 2.06916 16.8004 -18.3617 
21 1 1 3.00171 16.6372 -18.4457 
22 1 1 3.12846 15.7008 -18.4487 
23 1 1 2.71359 15.6045 -19.3093 
24 1 1 1.94149 15.0844 -19.0944 
25 1 1 2.12256 14.1348 -19.0645 
26 1 1 2.08378 13.767 -19.9344 
27 1 1 1.52286 14.2749 -20.5478 
28 1 1 2.1754 14.9431 -20.7189 
29 1 1 1.8264 15.8061 -20.9158 
30 1 1 0.991216 16.2048 -20.663 
ITEM: TIMESTEP
13000
ITEM: NUMBER OF ATOMS
30
ITEM: BOX BOUNDS pp pp pp
-5.7758099999999999e+00 5.7758099999999999e+00
-5.7758099999999999e+00 5.7758099999999999e+00
-5.7758099999999999e+00 5.7758099999999999e+00
ITEM: ATOMS id mol type xu yu zu 
1 1 1 -1.2479 16.3864 -17.9282 
2 1 1 -0.476247 15.8929 -17.946 
3 1 1 -0.116865 15.8604 -18.8582 
4 1 1 0.64143 15.4045 -19.2855 
5 1 1 0.271225 14.5167 -19.4838 
6 1 1 0.175674 13.7782 -18.8367 
7 1 1 -0.0690708 12.9138 -19.1245 
8 1 1 0.269383 12.2708 -18.4899 
9 1 1 1.22499 12.38 -18.3593 
10 1 1 1.35356 13.2641 -17.974 
11 1 1 1.09789 13.9069 -17.3077 
12 1 1 1.73965 13.6432 -16.6086 
13 1 1 2.4881 13.9168 -16.0775 
14 1 1 2.90849 14.4265 -15.4075 
15 1 1 3.20787 15.3458 -15.6258 
16 1 1 2.87949 15.3565 -16.5542 
17 1 1 2.32168 15.1909 -17.2762 
18 1 1 1.5683 15.7388 -17.2486 
19 1 1 1.69659 16.5669 -17.7138 
20 1 1 2.28675 17.0739 -18.3255 
21 1 1 3.15295 16.7289 -18.1068 
22 1 1 3.41466 15.9182 -18.575 
23 1 1 2.82758 15.4885 -19.2603 
24 1 1 1.98919 15.2099 -18.9424 
25 1 1 1.69607 14.2743 -18.9928 
26 1 1 1.89046 13.5098 -19.5784 
27 1 1 1.92636 14.1672 -20.3302 
28 1 1 2.15457 15.0528 -20.5487 
29 1 1 1.38975 15.5987 -20.7048 
30 1 1 0.650532 16.1871 -20.6283 
ITEM: TIMESTEP
14000
ITEM: NUMBER OF ATOMS
30
ITEM: BOX BOUNDS pp pp pp
-5.7758099999999999e+00 5.7758099999999999e+00
-5.7758099999999999e+00 5.7758099999999999e+00
-5.7758099999999999e+00 5.7758099999999999e+00
ITEM: ATOMS id mol type xu yu zu 
1 1 1 -1.55826 16.4808 -18.5586 
2 1 1 -0.858286 15.9104 -18.8437 
3 1 1 -0.21015 15.1912 -18.8128 
4 1 1 0.494308 14.7356 -19.3553 
5 1 1 0.192292 13.9782 -19.8006 
6 1 1 0.114365 13.3776 -19.0356 
7 1 1 0.00329104 12.4733 -18.7657 
8 1 1 0.609078 11.8086 -18.4238 
9 1 1 1.3617 12.282 -18.0813 
10 1 1 1.69578 13.1825 -18.2463 
11 1 1 1.32129 13.8653 -17.6942 
12 1 1 1.66396 13.7861 -16.7665 
13 1 1 2.07877 13.671 -15.9152 
14 1 1 2.51383 14.4837 -15.5704 
15 1 1 2.14491 15.3845 -15.7301 
16 1 1 2.2536 15.386 -16.7419 
17 1 1 2.31491 15.1449 -17.6474 
18 1 1 1.47333 15.5607 -17.9203 
19 1 1 1.29847 16.4852 -18.2831 
20 1 1 2.06538 16.6699 -18.8209 
21 1 1 2.76928 16.4601 -18.1659 
22 1 1 3.33919 15.7645 -18.6311 
23 1 1 2.9943 15.6742 -19.5038 
24 1 1 2.18583 15.2688 -19.2168 
25 1 1 1.90808 14.3344 -19.1469 
26 1 1 1.87527 13.4794 -19.5518 
27 1 1 1.6432 13.9123 -20.3964 
28 1 1 1.67779 14.8274 -20.0561 
29 1 1 1.48622 15.7841 -20.0569 
30 1 1 0.605313 15.776 -20.4317 
ITEM: TIMESTEP
15000
ITEM: NUMBER OF ATOMS
30
ITEM: BOX BOUNDS pp pp pp
-5.7758099999999999e+00 5.7758099999999999e+00
-5.7758099999999999e+00 5.7758099999999999e+00
-5.7758099999999999e+00 5.7758099999999999e+00
ITEM: ATOMS id mol type xu yu zu 
1 1 1 -1.67128 16.3993 -18.517 
2 1 1 -0.817833 15.9201 -18.8081 
3 1 1 -0.187164 15.4067 -18.3426 
4 1 1 0.244574 14.76 -18.9419 
5 1 1 0.414871 13.9107 -18.5552 
6 1 1 0.300877 13.0958 -18.9611 
7 1 1 0.0196483 12.1599 -18.9441 
8 1 1 0.0844303 11.8562 -18.016 
9 1 1 0.906619 12.2057 -17.7439 
10 1 1 1.43176 13.0573 -17.8055 
11 1 1 0.99281 13.7386 -17.2711 
12 1 1 1.79399 13.4455 -16.8478 
13 1 1 2.01979 14.1136 -16.2251 
14 1 1 2.22656 14.8459 -15.6272 
15 1 1 2.51375 15.6301 -16.0722 
16 1 1 2.51377 15.301 -17.0167 
17 1 1 2.16429 15.0489 -17.82 
18 1 1 1.3001 15.4351 -17.7106 
19 1 1 1.19631 15.9005 -18.5125 
20 1 1 1.9795 16.3949 -18.7818 
21 1 1 2.90131 16.3516 -18.5286 
22 1 1 3.62008 15.897 -19.044 
23 1 1 3.11047 15.1505 -19.3857 
24 1 1 2.41917 14.88 -18.8092 
25 1 1 2.05738 13.9602 -18.7452 
26 1 1 1.88921 13.1958 -19.2903 
27 1 1 1.46553 13.728 -19.9545 
28 1 1 1.47015 14.5137 -20.5571 
29 1 1 1.31804 15.2551 -19.976 
30 1 1 1.19398 16.0982 -20.4453 
ITEM: TIMESTEP
16000
ITEM: NUMBER OF ATOMS
30
ITEM: BOX BOUNDS pp pp pp
-5.7758099999999999e+00 5.7758099999999999e+00
-5.7758099999999999e+00 5.7758099999999999e+00
-5.7758099999999999e+00 5.7758099999999999e+00
ITEM: ATOMS id mol type xu yu zu 
1 1 1 -1.44807 16.2955 -18.2543 
2 1 1 -0.825993 15.7684 -18.7878 
3 1 1 -0.529682 14.8194 -18.93 
4 1 1 0.411043 14.6559 -19.0177 
5 1 1 0.413072 13.8165 -18.4404 
6 1 1 0.260768 12.9835 -18.8186 
7 1 1 -0.117137 12.0846 -18.834 
8 1 1 0.2292 11.681 -18.0799 
9 1 1 0.940346 12.2906 -17.7184 
10 1 1 1.64232 12.9378 -17.7862 
11 1 1 1.3883 13.7136 -17.1803 
12 1 1 1.64882 13.4321 -16.2878 
13 1 1 2.40728 13.9881 -16.2739 
14 1 1 2.11555 14.9184 -16.158 
15 1 1 2.45167 15.8223 -16.152 
16 1 1 2.91461 15.8465 -16.994 
17 1 1 2.26561 15.4646 -17.5645 
18 1 1 1.36442 15.1919 -17.7575 
19 1 1 1.06362 15.841 -18.4096 
20 1 1 1.76072 16.4905 -18.6692 
21 1 1 2.70522 16.2699 -18.5817 
22 1 1 3.32364 15.9315 -19.2634 
23 1 1 2.64385 15.4785 -19.7487 
24 1 1 2.14992 14.9633 -19.1099 
25 1 1 2.35248 14.272 -18.4555 
26 1 1 2.12876 13.5538 -19.0529 
27 1 1 1.52842 13.9998 -19.6346 
28 1 1 1.51587 14.6809 -20.3394 
29 1 1 1.06491 15.4878 -20.0047 
30 1 1 1.46415 16.2327 -20.4521 
ITEM: TIMESTEP
17000
ITEM: NUMBER OF ATOMS
30
ITEM: BOX BOUNDS pp pp pp
-5.7758099999999999e+00 5.7758099999999999e+00
-5.7758099999999999e+00 5.7758099999999999e+00
-5.7758099999999999e+00 5.7758099999999999e+00
ITEM: ATOMS id mol type xu yu zu 
1 1 1 -0.381027 15.8289 -17.9336 
2 1 1 -0.380548 15.7248 -18.8873 
3 1 1 -0.0657929 14.8175 -18.9962 
4 1 1 0.435038 14.1939 -18.5307 
5 1 1 0.731776 13.2744 -18.3693 
6 1 1 0.538411 12.7009 -19.1163 
7 1 1 -0.223593 12.1182 -19.0938 
8 1 1 0.243846 11.6967 -18.3768 
9 1 1 0.936207 11.9427 -17.7637 
10 1 1 1.76274 12.3867 -17.4257 
11 1 1 1.49566 13.135 -16.9321 
12 1 1 2.09301 13.3397 -16.2377 
13 1 1 2.3349 14.2591 -16.4134 
14 1 1 2.23148 14.7145 -15.5689 
15 1 1 1.96047 15.581 -15.858 
16 1 1 2.56547 15.8101 -16.5686 
17 1 1 2.068 15.4294 -17.2905 
18 1 1 1.16868 15.2597 -17.6535 
19 1 1 1.25556 16.1119 -18.167 
20 1 1 2.07291 16.6603 -18.375 
21 1 1 2.98948 16.6143 -18.6288 
22 1 1 3.45907 15.8129 -18.9095 
23 1 1 2.87638 15.2211 -19.3924 
24 1 1 2.12078 15.1552 -18.8332 
25 1 1 2.27858 14.3003 -18.4347 
26 1 1 2.12144 13.5185 -19.0425 
27 1 1 1.4572 13.8992 -19.6647 
28 1 1 1.7458 14.5368 -20.393 
29 1 1 1.43555 15.4598 -20.0986 
30 1 1 2.14573 16.1041 -20.321 
ITEM: TIMESTEP
18000
ITEM: NUMBER OF ATOMS
30
ITEM: BOX BOUNDS pp pp pp
-5.7758099999999999e+00 5.7758099999999999e+00
-5.7758099999999999e+00 5.7758099999999999e+00
-5.7758099999999999e+00 5.7758099999999999e+00
ITEM: ATOMS id mol type xu yu zu 
1 1 1 -0.298082 15.9781 -18.2413 
2 1 1 0.141464 15.5426 -18.9995 
3 1 1 0.599945 14.7264 -19.2477 
4 1 1 0.95484 14.185 -18.4722 
5 1 1 0.838121 13.2508 -18.6593 
6 1 1 -0.0796362 13.2711 -19.0316 
7 1 1 -0.280158 12.3162 -19.0977 
8 1 1 0.543309 11.7753 -19.0878 
9 1 1 0.921019 11.805 -18.2126 
10 1 1 1.42359 12.3452 -17.5724 
11 1 1 1.27008 12.9764 -16.8812 
12 1 1 1.9738 13.2371 -16.2904 
13 1 1 2.21493 14.1782 -16.1861 
14 1 1 2.58828 14.9101 -15.6404 
15 1 1 1.89667 15.5568 -15.7526 
16 1 1 1.9336 15.7852 -16.6953 
17 1 1 2.10884 15.5527 -17.5968 
18 1 1 1.17079 15.4742 -17.8513 
19 1 1 1.09122 16.433 -18.0165 
20 1 1 1.93994 16.6526 -18.3966 
21 1 1 2.8153 16.4984 -18.7687 
22 1 1 3.58383 16.0427 -19.066 
23 1 1 3.28024 15.1494 -19.0904 
24 1 1 2.37824 14.737 -19.1315 
25 1 1 2.24122 13.8651 -18.884 
26 1 1 1.78481 13.5872 -19.7442 
27 1 1 1.09059 13.8432 -20.3334 
28 1 1 1.34659 14.7055 -20.6792 
29 1 1 1.59026 15.4535 -20.1712 
30 1 1 1.6763 16.4461 -20.0292 
ITEM: TIMESTEP
19000
ITEM: NUMBER OF ATOMS
30
ITEM: BOX BOUNDS pp pp pp
-5.7758099999999999e+00 5.7758099999999999e+00
-5.7758099999999999e+00 5.7758099999999999e+00
-5.7758099999999999e+00 5.7758099999999999e+00
ITEM: ATOMS id mol type xu yu zu 
1 1 1 -0.132594 15.6005 -18.3944 
2 1 1 0.126235 15.578 -19.3331 
3 1 1 0.644145 14.8009 -19.4068 
4 1 1 0.968679 14.2569 -18.7224 
5 1 1 0.654823 13.3696 -18.4912 
6 1 1 -0.140693 12.9957 -18.8297 
7 1 1 0.21889 12.4443 -19.5073 
8 1 1 0.992608 12.0122 -19.1436 
9 1 1 1.08099 11.9389 -18.1519 
10 1 1 1.94525 12.1943 -17.9798 
11 1 1 2.21711 13.0714 -17.6503 
12 1 1 2.65181 13.3856 -16.87 
13 1 1 2.00403 14.0094 -16.5287 
14 1 1 2.3584 14.4775 -15.7713 
15 1 1 2.17975 15.4424 -15.7705 
16 1 1 1.71877 15.6813 -16.6033 
17 1 1 2.2454 15.4035 -17.392 
18 1 1 1.71588 15.25 -18.1773 
19 1 1 1.43169 16.1444 -18.085 
20 1 1 1.87519 16.7195 -18.6839 
21 1 1 2.80823 16.8155 -18.7777 
22 1 1 3.33424 16.1961 -19.2979 
23 1 1 3.08771 15.4484 -18.7154 
24 1 1 2.57181 14.9688 -19.4177 
25 1 1 2.2289 14.0736 -19.3444 
26 1 1 1.69272 13.3695 -19.706 
27 1 1 1.24184 13.7466 -20.4538 
28 1 1 1.55786 14.6638 -20.5633 
29 1 1 1.27642 15.5631 -20.598 
30 1 1 1.84667 16.1327 -20.0807 
ITEM: TIMESTEP
20000
ITEM: NUMBER OF ATOMS
30
ITEM: BOX BOUNDS pp pp pp
-5.7758099999999999e+00 5.7758099999999999e+00
-5.7758099999999999e+00 5.7758099999999999e+00
-5.7758099999999999e+00 5.7758099999999999e+00
ITEM: ATOMS id mol type xu yu zu 
1 1 1 -0.33003 15.8765 -18.628 
2 1 1 0.219292 15.5036 -19.3007 
3 1 1 0.26359 14.6102 -19.5915 
4 1 1 0.452561 14.4056 -18.6709 
5 1 1 0.0957564 13.5519 -18.6208 
6 1 1 -0.134962 12.8135 -19.2465 
7 1 1 0.273087 12.0673 -19.7168 
8 1 1 1.1562 11.9228 -19.3413 
9 1 1 1.64976 11.6631 -18.5689 
10 1 1 1.70136 12.2995 -17.8391 
11 1 1 1.9157 13.2134 -17.9897 
12 1 1 2.425 13.5559 -17.2484 
13 1 1 1.82089 14.1451 -16.7351 
14 1 1 2.28438 14.5003 -15.9952 
15 1 1 2.14868 15.4409 -15.875 
16 1 1 2.13131 16.034 -16.5875 
17 1 1 2.25636 15.427 -17.2963 
18 1 1 1.79295 15.035 -18.088 
19 1 1 1.23813 15.7357 -18.2307 
20 1 1 1.73629 16.2572 -18.885 
21 1 1 2.34074 16.7819 -19.3632 
22 1 1 3.05385 16.1237 -19.4194 
23 1 1 3.12139 15.4068 -18.8005 
24 1 1 2.76842 14.6221 -19.2137 
25 1 1 1.90616 14.1535 -19.2677 
26 1 1 1.32618 13.403 -19.4507 
27 1 1 1.01495 13.3912 -20.3656 
28 1 1 1.44864 14.0734 -20.8383 
29 1 1 1.2558 14.936 -20.5372 
30 1 1 2.17743 15.2971 -20.4523 
ITEM: TIMESTEP
21000
ITEM: NUMBER OF ATOMS
30
ITEM: BOX BOUNDS pp pp pp
-5.7758099999999999e+00 5.7758099999999999e+00
-5.7758099999999999e+00 5.7758099999999999e+00
-5.7758099999999999e+00 5.7758099999999999e+00
ITEM: ATOMS id mol type xu yu zu 
1 1 1 -0.333273 15.9347 -19.2635 
2 1 1 0.111748 15.1856 -19.7029 
3 1 1 0.30998 14.455 -19.0892 
4 1 1 0.356016 14.1011 -18.2097 
5 1 1 0.592928 13.1431 -18.1831 
6 1 1 0.110898 12.8256 -18.9455 
7 1 1 0.406323 11.9687 -19.121 
8 1 1 1.07378 11.2289 -19.1978 
9 1 1 1.74364 11.5272 -18.5685 
10 1 1 1.85891 12.3015 -18.0422 
11 1 1 2.02826 13.1697 -17.6626 
12 1 1 2.14945 13.903 -17.0208 
13 1 1 1.49206 14.1238 -16.3716 
14 1 1 1.91457 14.6011 -15.6915 
15 1 1 1.30908 15.3382 -15.8175 
16 1 1 1.77528 15.6717 -16.5999 
17 1 1 2.38107 15.3666 -17.3373 
18 1 1 1.67452 15.0473 -17.8849 
19 1 1 1.44491 15.3196 -18.7552 
20 1 1 1.54436 15.9057 -19.4777 
21 1 1 2.32908 16.4208 -19.7492 
22 1 1 3.11368 15.9805 -19.389 
23 1 1 3.03558 15.2626 -18.762 
24 1 1 2.70246 14.3932 -18.5794 
25 1 1 1.95625 13.8107 -18.7293 
26 1 1 1.4187 13.4977 -19.4559 
27 1 1 0.775512 13.7046 -20.1339 
28 1 1 1.69285 14.0051 -20.325 
29 1 1 1.70745 14.9237 -20.1982 
30 1 1 2.45497 15.1074 -20.7462 
ITEM: TIMESTEP
22000
ITEM: NUMBER OF ATOMS
30
ITEM: BOX BOUNDS pp pp pp
-5.7758099999999999e+00 5.7758099999999999e+00
-5.7758099999999999e+00 5.7758099999999999e+00
-5.7758099999999999e+00 5.7758099999999999e+00
ITEM: ATOMS id mol type xu yu zu 
1 1 1 0.332235 15.5193 -19.9184 
2 1 1 0.567401 14.6332 -19.8089 
3 1 1 0.111845 14.4202 -19.006 
4 1 1 -0.113873 13.9816 -18.2209 
5 1 1 -0.0264747 13.0163 -18.3556 
6 1 1 0.0229204 12.0742 -18.6006 
7 1 1 0.592099 11.5266 -19.1555 
8 1 1 1.1098 10.9707 -18.5521 
9 1 1 1.41799 11.7132 -17.9732 
10 1 1 1.7231 12.5803 -18.2632 
11 1 1 1.55691 13.2841 -17.6138 
12 1 1 2.23264 13.7426 -17.141 
13 1 1 2.26279 14.4004 -16.4205 
14 1 1 2.26053 14.8141 -15.5581 
15 1 1 1.50847 15.3179 -15.9174 
16 1 1 1.68652 15.5865 -16.8522 
17 1 1 2.41144 15.2961 -17.3101 
18 1 1 1.76283 15.068 -17.9749 
19 1 1 1.39573 15.2136 -18.8545 
20 1 1 1.6105 15.9617 -19.4502 
21 1 1 2.52786 15.9694 -19.8628 
22 1 1 3.51968 16.0278 -19.7566 
23 1 1 3.43952 15.299 -19.1526 
24 1 1 2.86913 14.5517 -19.0514 
25 1 1 2.2405 13.8573 -18.8263 
26 1 1 1.29409 13.8916 -18.8654 
27 1 1 1.07313 13.4024 -19.6694 
28 1 1 1.78974 13.7508 -20.2161 
29 1 1 1.93141 14.7013 -20.2324 
30 1 1 2.24522 14.9652 -21.1092 
ITEM: TIMESTEP
23000
ITEM: NUMBER OF ATOMS
30
ITEM: BOX BOUNDS pp pp pp
-5.7758099999999999e+00 5.7758099999999999e+00
-5.7758099999999999e+00 5.7758099999999999e+00
-5.7758099999999999e+00 5.7758099999999999e+00
ITEM: ATOMS id mol type xu yu zu 
1 1 1 0.288009 15.3388 -20.3164 
2 1 1 0.67674 14.8 -19.6709 
3 1 1 0.489005 14.6482 -18.758 
4 1 1 0.164944 14.0418 -18.0181 
5 1 1 0.0461775 13.2268 -18.4765 
6 1 1 0.381956 12.4708 -18.9253 
7 1 1 0.545025 11.5181 -19.013 
8 1 1 0.663392 10.9051 -18.2891 
9 1 1 1.51678 11.2389 -17.9944 
10 1 1 1.66693 12.139 -18.1886 
11 1 1 1.43012 12.9965 -17.7896 
12 1 1 1.99548 13.728 -17.4509 
13 1 1 1.70478 13.7146 -16.5249 
14 1 1 1.70703 14.4996 -15.9488 
15 1 1 1.14942 15.1644 -16.294 
16 1 1 1.74957 15.7024 -16.7682 
17 1 1 2.51091 15.2574 -17.1495 
18 1 1 1.99557 15.1068 -17.9295 
19 1 1 1.55674 15.7843 -18.4843 
20 1 1 1.76294 15.722 -19.4362 
21 1 1 2.50843 16.2487 -19.6768 
22 1 1 3.44361 16.4505 -19.7431 
23 1 1 3.4268 15.6478 -19.1802 
24 1 1 2.96754 14.7614 -19.0729 
25 1 1 2.13757 14.2687 -18.8857 
26 1 1 1.51967 13.5472 -18.9682 
27 1 1 1.60072 13.4724 -19.9479 
28 1 1 1.77822 14.2087 -20.5264 
29 1 1 2.20869 15.0363 -20.7905 
30 1 1 2.47766 15.484 -21.5855 
ITEM: TIMESTEP
24000
ITEM: NUMBER OF ATOMS
30
ITEM: BOX BOUNDS pp pp pp
-5.7758099999999999e+00 5.7758099999999999e+00
-5.7758099999999999e+00 5.7758099999999999e+00
-5.7758099999999999e+00 5.7758099999999999e+00
ITEM: ATOMS id mol type xu yu zu 
1 1 1 0.267161 15.0444 -20.4347 
2 1 1 0.400609 14.7539 -19.4986 
3 1 1 0.205975 14.1564 -18.7415 
4 1 1 0.234139 13.4333 -18.0894 
5 1 1 0.276141 13.1258 -18.9846 
6 1 1 0.764264 12.2574 -18.8221 
7 1 1 0.250269 11.4701 -18.9429 
8 1 1 0.49383 10.8908 -18.2318 
9 1 1 1.27535 11.1898 -17.7382 