ITEM: TIMESTEP
0
ITEM: NUMBER OF ATOMS
30
ITEM: BOX BOUNDS pp pp pp
-5.7758099999999999e+00 5.7758099999999999e+00
-5.7758099999999999e+00 5.7758099999999999e+00
-5.7758099999999999e+00 5.7758099999999999e+00
ITEM: ATOMS id mol type x y z 
1 1 1 -0.115456 4.89765 5.00319 
2 1 1 0.414768 5.58565 4.60221 
3 1 1 0.734644 4.72745 4.39715 
4 1 1 0.567101 3.7982 4.21933 
5 1 1 0.224694 3.32135 3.46563 
6 1 1 -0.00249664 2.39454 3.32568 
7 1 1 -0.061236 1.91547 4.14396 
8 1 1 -0.172589 1.26853 4.83376 
9 1 1 0.38451 1.33783 5.59085 
10 1 1 1.25493 1.05739 -5.71852 
11 1 1 1.58862 1.10343 -4.83307 
12 1 1 2.40796 1.64153 -4.74075 
13 1 1 2.20974 2.52295 -5.12458 
14 1 1 2.92629 3.19274 -5.22038 
15 1 1 3.1933 4.01677 -4.7845 
16 1 1 3.12492 4.84909 -4.28128 
17 1 1 2.36347 4.85544 -3.69682 
18 1 1 1.7071 4.9972 -4.31028 
19 1 1 1.5937 5.6238 -5.11723 
20 1 1 1.62416 5.55825 5.46729 
21 1 1 2.03145 4.73175 5.25016 
22 1 1 1.80141 3.80995 5.33543 
23 1 1 2.22855 3.34756 4.61182 
24 1 1 2.45422 2.51664 5.02231 
25 1 1 1.67022 1.94791 4.84454 
26 1 1 1.61117 1.9196 3.88644 
27 1 1 1.8256 2.53713 3.18764 
28 1 1 1.83315 3.45537 3.19539 
29 1 1 2.14861 4.34829 3.13894 
30 1 1 1.54317 4.78893 2.58777 
ITEM: TIMESTEP
1000
ITEM: NUMBER OF ATOMS
30
ITEM: BOX BOUNDS pp pp pp
-5.7758099999999999e+00 5.7758099999999999e+00
-5.7758099999999999e+00 5.7758099999999999e+00
-5.7758099999999999e+00 5.7758099999999999e+00
ITEM: ATOMS id mol type x y z 
1 1 1 -0.521961 5.16306 4.87063 
2 1 1 0.353575 5.41847 4.50152 
3 1 1 0.304057 4.47077 4.6626 
4 1 1 0.394526 3.80749 3.96721 
5 1 1 0.445489 2.85783 3.77134 
6 1 1 -0.355833 2.27753 3.65505 
7 1 1 0.152686 1.44339 3.71896 
8 1 1 -0.11877 1.10187 4.58224 
9 1 1 0.376516 0.963358 5.41274 
10 1 1 1.09509 0.862176 -5.49624 
11 1 1 1.81502 1.35202 -5.0915 
12 1 1 2.76664 1.27025 -5.16005 
13 1 1 2.45702 2.1763 -5.23203 
14 1 1 2.7414 3.07963 -5.44867 
15 1 1 3.2032 3.91236 -5.32062 
16 1 1 3.02528 4.0507 -4.3895 
17 1 1 2.06027 4.13873 -4.3502 
18 1 1 1.79952 5.03405 -4.10395 
19 1 1 1.44506 5.02339 -5.06692 
20 1 1 1.48544 5.35527 5.60195 
21 1 1 2.08706 4.59718 5.26116 
22 1 1 1.66636 3.80754 4.80606 
23 1 1 2.35648 3.19308 4.44734 
24 1 1 2.30043 2.25181 4.67501 
25 1 1 1.37636 2.22335 4.55713 
26 1 1 1.69614 1.92502 3.69779 
27 1 1 1.77477 2.23386 2.78794 
28 1 1 1.90699 3.17849 2.90836 
29 1 1 1.63351 4.06344 2.63816 
30 1 1 1.62331 4.95123 2.92669 
ITEM: TIMESTEP
2000
ITEM: NUMBER OF ATOMS
30
ITEM: BOX BOUNDS pp pp pp
-5.7758099999999999e+00 5.7758099999999999e+00
-5.7758099999999999e+00 5.7758099999999999e+00
-5.7758099999999999e+00 5.7758099999999999e+00
ITEM: ATOMS id mol type x y z 
1 1 1 -0.900893 5.49382 4.07824 
2 1 1 -0.0220202 5.33356 4.54479 
3 1 1 0.436518 4.58217 4.88674 
4 1 1 0.887526 4.01932 4.21305 
5 1 1 1.22073 3.15294 3.96912 
6 1 1 0.412158 2.60543 4.27135 
7 1 1 0.277091 1.69436 4.05131 
8 1 1 -0.175603 1.23555 4.78726 
9 1 1 0.331 1.39783 5.60445 
10 1 1 1.10542 0.924605 -5.72018 
11 1 1 1.9652 1.29267 -5.74052 
12 1 1 2.67805 1.75308 -5.26519 
13 1 1 2.358 2.68737 -5.36997 
14 1 1 3.08626 3.19107 -5.03454 
15 1 1 3.49975 4.03411 -5.14721 
16 1 1 2.58728 4.24527 -5.11564 
17 1 1 1.65091 3.96318 -4.90093 
18 1 1 1.82039 4.79902 -4.41059 
19 1 1 1.43945 5.44363 -4.97176 
20 1 1 1.55665 5.55701 5.6168 
21 1 1 1.92621 5.01027 4.90573 
22 1 1 2.0653 4.04898 4.94948 
23 1 1 2.60756 3.2474 4.90419 
24 1 1 2.39411 2.47564 4.40172 
25 1 1 1.91097 1.70645 4.07647 
26 1 1 1.86572 1.47728 3.1503 
27 1 1 1.72865 2.22466 2.57613 
28 1 1 1.85606 3.18915 2.62333 
29 1 1 1.05809 3.65553 2.34388 
30 1 1 1.22347 4.5456 1.91102 
ITEM: TIMESTEP
3000
ITEM: NUMBER OF ATOMS
30
ITEM: BOX BOUNDS pp pp pp
-5.7758099999999999e+00 5.7758099999999999e+00
-5.7758099999999999e+00 5.7758099999999999e+00
-5.7758099999999999e+00 5.7758099999999999e+00
ITEM: ATOMS id mol type x y z 
1 1 1 -1.02763 5.51528 4.4774 
2 1 1 -0.277917 4.93776 4.46299 
3 1 1 0.601735 4.72438 4.26545 
4 1 1 0.700172 3.77901 4.13732 
5 1 1 0.960693 2.94329 3.6789 
6 1 1 0.398971 2.25817 3.4532 
7 1 1 0.184803 1.34019 3.6974 
8 1 1 -0.428371 1.40663 4.44265 
9 1 1 0.384264 1.39459 4.94685 
10 1 1 1.08328 1.16222 5.52174 
11 1 1 2.00258 1.03345 5.75773 
12 1 1 2.48082 1.85621 5.68837 
13 1 1 2.23011 2.71565 -5.61867 
14 1 1 3.01111 3.22932 -5.53389 
15 1 1 3.49015 3.74505 -4.88717 
16 1 1 2.60245 3.99899 -4.86033 
17 1 1 1.75693 4.33227 -5.07746 
18 1 1 1.74774 5.2279 -4.77293 
19 1 1 1.26776 -5.6699 -5.34942 
20 1 1 1.34846 5.70387 5.27104 
21 1 1 1.9801 5.00134 5.1144 
22 1 1 2.1609 4.12299 4.79153 
23 1 1 2.30681 3.18204 4.58503 
24 1 1 2.26961 2.24669 4.31045 
25 1 1 1.60112 1.60529 4.0373 
26 1 1 1.58708 1.55183 3.08063 
27 1 1 1.43908 1.97766 2.23588 
28 1 1 1.65953 2.8628 2.4437 
29 1 1 0.892423 3.43694 2.5646 
30 1 1 1.17718 4.29126 2.17123 
ITEM: TIMESTEP
4000
ITEM: NUMBER OF ATOMS
30
ITEM: BOX BOUNDS pp pp pp
-5.7758099999999999e+00 5.7758099999999999e+00
-5.7758099999999999e+00 5.7758099999999999e+00
-5.7758099999999999e+00 5.7758099999999999e+00
ITEM: ATOMS id mol type x y z 
1 1 1 -0.816154 5.15756 4.83649 
2 1 1 0.153911 5.05637 4.76309 
3 1 1 0.880001 4.56747 4.40572 
4 1 1 0.835626 3.76906 3.82467 
5 1 1 0.782187 2.89846 4.17368 
6 1 1 0.149023 2.1843 4.12938 
7 1 1 -0.105273 1.38205 3.7431 
8 1 1 -0.259269 0.805362 4.48908 
9 1 1 0.596386 1.11304 4.81313 
10 1 1 1.24664 1.16006 5.49339 
11 1 1 2.15132 0.936808 -5.75358 
12 1 1 2.80731 1.5958 5.64295 
13 1 1 2.72186 2.23466 -5.20267 
14 1 1 3.45069 2.79942 -5.43781 
15 1 1 3.72864 3.66278 -5.18851 
16 1 1 2.81136 3.5789 -5.05131 
17 1 1 2.02067 4.09969 -5.23508 
18 1 1 2.17461 5.03536 -5.20372 
19 1 1 1.32919 5.50368 -5.16137 
20 1 1 1.63329 5.29417 5.47883 
21 1 1 2.24151 4.89693 4.84024 
22 1 1 2.50511 4.04767 4.50498 
23 1 1 2.68285 3.15423 4.74776 
24 1 1 2.2552 2.36744 4.37969 
25 1 1 2.02007 1.4385 4.22328 
26 1 1 1.46296 1.47598 3.46509 
27 1 1 1.249 2.09605 2.78502 
28 1 1 1.69672 2.95433 2.82611 
29 1 1 1.41901 3.72253 2.2728 
30 1 1 1.78411 4.58997 2.0019 
ITEM: TIMESTEP
5000
ITEM: NUMBER OF ATOMS
30
ITEM: BOX BOUNDS pp pp pp
-5.7758099999999999e+00 5.7758099999999999e+00
-5.7758099999999999e+00 5.7758099999999999e+00
-5.7758099999999999e+00 5.7758099999999999e+00
ITEM: ATOMS id mol type x y z 
1 1 1 -1.21488 5.77048 4.61653 
2 1 1 -0.474688 5.19236 4.71741 
3 1 1 0.381655 4.83425 4.8507 
4 1 1 0.805047 4.18042 4.23706 
5 1 1 0.743524 3.24836 4.01948 
6 1 1 0.652743 2.3061 3.80622 
7 1 1 0.283724 1.42455 3.705 
8 1 1 -0.15764 1.29732 4.58692 
9 1 1 0.476787 0.842062 5.19248 
10 1 1 1.27829 1.35781 5.23722 
11 1 1 1.93568 1.53389 -5.61551 
12 1 1 2.78002 1.57544 5.58461 
13 1 1 3.29331 2.17933 -5.427 
14 1 1 3.55554 2.97519 5.58627 
15 1 1 3.10154 3.7165 -5.51154 
16 1 1 2.22858 3.35143 -5.37501 
17 1 1 1.9627 4.26091 -5.29585 
18 1 1 1.80818 5.10509 -4.90818 
19 1 1 1.37753 -5.67823 -5.24729 
20 1 1 1.62385 -5.48142 5.44363 
21 1 1 2.04035 5.27476 5.12813 
22 1 1 2.45684 4.50792 4.72061 
23 1 1 2.31766 3.59902 4.40227 
24 1 1 2.50803 2.62904 4.46837 
25 1 1 2.82838 1.86175 3.98155 
26 1 1 2.08168 1.6656 3.46449 
27 1 1 1.64606 2.33818 2.96043 
28 1 1 1.88337 3.26435 3.06983 
29 1 1 1.76702 4.1413 2.68585 
30 1 1 1.74041 4.55202 1.79337 
ITEM: TIMESTEP
6000
ITEM: NUMBER OF ATOMS
30
ITEM: BOX BOUNDS pp pp pp
-5.7758099999999999e+00 5.7758099999999999e+00
-5.7758099999999999e+00 5.7758099999999999e+00
-5.7758099999999999e+00 5.7758099999999999e+00
ITEM: ATOMS id mol type x y z 
1 1 1 -1.07336 4.67026 5.37589 
2 1 1 -0.131094 4.93242 5.29862 
3 1 1 0.681539 4.76722 4.7447 
4 1 1 0.792283 4.04979 4.07985 
5 1 1 0.783321 3.11298 3.86076 
6 1 1 1.0231 2.24907 3.57096 
7 1 1 0.574503 1.43377 3.63707 
8 1 1 0.351715 0.862057 4.34951 
9 1 1 0.388703 1.22588 5.27618 
10 1 1 1.33278 1.30235 5.35709 
11 1 1 2.04094 1.8096 5.74856 
12 1 1 2.98992 1.82389 -5.65956 
13 1 1 3.71666 2.41437 -5.75241 
14 1 1 3.46662 3.25926 5.46981 
15 1 1 2.68135 3.30894 -5.55135 
16 1 1 1.85223 3.74631 -5.38001 
17 1 1 1.40934 4.57022 -5.21314 
18 1 1 1.70666 5.48364 -5.20298 
19 1 1 1.40237 -5.51443 5.61071 
20 1 1 2.10602 -5.67308 5.03378 
21 1 1 2.46258 4.98085 5.06892 
22 1 1 2.3274 4.12255 4.69339 
23 1 1 1.98669 3.20239 4.63269 
24 1 1 2.64469 2.52123 4.54376 
25 1 1 3.10067 1.76754 4.09748 
26 1 1 2.51296 1.64002 3.41537 
27 1 1 2.2298 2.56869 3.10935 
28 1 1 1.77748 3.30916 2.72256 
29 1 1 1.99626 4.13184 3.09393 
30 1 1 1.92181 4.73556 2.36725 
ITEM: TIMESTEP
7000
ITEM: NUMBER OF ATOMS
30
ITEM: BOX BOUNDS pp pp pp
-5.7758099999999999e+00 5.7758099999999999e+00
-5.7758099999999999e+00 5.7758099999999999e+00
-5.7758099999999999e+00 5.7758099999999999e+00
ITEM: ATOMS id mol type x y z 
1 1 1 -0.780953 4.86003 5.36173 
2 1 1 0.141507 5.17706 5.33796 
3 1 1 0.607441 4.75742 4.58135 
4 1 1 0.761747 3.79199 4.52231 
5 1 1 0.647229 2.9541 4.04427 
6 1 1 1.09733 2.09817 3.95625 
7 1 1 0.638136 1.31218 3.72975 
8 1 1 0.0672007 1.0074 4.42212 
9 1 1 0.513349 1.2411 5.29685 
10 1 1 1.49336 1.1909 5.26469 
11 1 1 1.79522 2.08324 5.40805 
12 1 1 2.62874 2.43325 5.67632 
13 1 1 3.57167 2.549 5.43754 
14 1 1 3.69924 3.48904 5.64378 
15 1 1 3.00769 3.72995 -5.30035 
16 1 1 2.14799 4.01757 -5.4565 
17 1 1 1.48496 4.73916 -5.46696 
18 1 1 1.12423 5.63385 -5.27387 
19 1 1 1.35272 -5.20032 5.70638 
20 1 1 1.98443 -5.37891 5.03387 
21 1 1 2.3825 5.41031 4.62818 
22 1 1 2.39666 4.41861 4.62174 
23 1 1 2.32677 3.57552 4.1877 
24 1 1 2.55254 2.65814 4.29639 
25 1 1 2.533 1.71339 4.10413 
26 1 1 2.42731 1.50056 3.19423 
27 1 1 2.01639 2.17476 2.69301 
28 1 1 1.50918 2.97794 2.74073 
29 1 1 2.0686 3.76277 2.95424 
30 1 1 1.79397 4.60518 2.6142 
ITEM: TIMESTEP
8000
ITEM: NUMBER OF ATOMS
30
ITEM: BOX BOUNDS pp pp pp
-5.7758099999999999e+00 5.7758099999999999e+00
-5.7758099999999999e+00 5.7758099999999999e+00
-5.7758099999999999e+00 5.7758099999999999e+00
ITEM: ATOMS id mol type x y z 
1 1 1 -0.419108 4.33149 5.23325 
2 1 1 0.465781 4.66866 5.34118 
3 1 1 0.702168 4.96147 4.46604 
4 1 1 1.14549 4.16488 4.13641 
5 1 1 0.725677 3.30034 4.1861 
6 1 1 0.650934 2.35604 4.09842 
7 1 1 0.899022 1.44265 3.85817 
8 1 1 0.537815 0.690258 4.34687 
9 1 1 1.16426 0.595899 5.06505 
10 1 1 1.471 1.50224 5.29683 
11 1 1 1.83451 2.32793 5.69681 
12 1 1 2.75461 2.10775 5.71516 
13 1 1 3.48284 2.55058 5.35182 
14 1 1 3.7058 3.312 -5.69843 
15 1 1 3.09832 4.04566 -5.42842 
16 1 1 2.26347 4.1788 5.73156 
17 1 1 2.05067 4.97929 -5.30504 
18 1 1 1.37974 5.69437 -5.18157 
19 1 1 1.37654 -5.47867 5.47562 
20 1 1 2.23285 -5.47251 4.99977 
21 1 1 2.27504 5.60078 4.13129 
22 1 1 2.66397 4.82769 4.43117 
23 1 1 2.78112 3.93272 4.21126 
24 1 1 2.26915 3.14497 4.40434 
25 1 1 2.20916 2.21192 4.13312 
26 1 1 2.35899 1.81951 3.27004 
27 1 1 1.58619 2.38704 3.01916 
28 1 1 1.6974 3.19145 2.55159 
29 1 1 2.46881 3.75344 2.75493 
30 1 1 2.55097 4.73754 2.86875 
ITEM: TIMESTEP
9000
ITEM: NUMBER OF ATOMS
30
ITEM: BOX BOUNDS pp pp pp
-5.7758099999999999e+00 5.7758099999999999e+00
-5.7758099999999999e+00 5.7758099999999999e+00
-5.7758099999999999e+00 5.7758099999999999e+00
ITEM: ATOMS id mol type x y z 
1 1 1 -0.588731 4.34637 4.99511 
2 1 1 0.0724178 5.0269 5.29182 
3 1 1 0.778765 4.69116 4.77995 
4 1 1 0.356717 4.10793 4.10952 
5 1 1 0.426578 3.15516 4.33144 
6 1 1 0.68222 2.28842 3.92266 
7 1 1 0.307584 1.41457 3.65018 
8 1 1 0.579887 0.976729 4.4673 
9 1 1 1.41384 1.18216 4.92473 
10 1 1 1.20468 1.99024 5.38403 
11 1 1 1.81613 2.65584 -5.69497 
12 1 1 2.66575 2.4893 -5.25619 
13 1 1 3.47826 2.43278 -5.76556 
14 1 1 3.99716 3.16495 -5.48299 
15 1 1 3.48861 4.01114 -5.54224 
16 1 1 2.67161 4.39329 5.71018 
17 1 1 1.77192 4.49273 -5.53852 
18 1 1 1.3226 5.30128 -5.28385 
19 1 1 1.40853 -5.65681 5.54283 
20 1 1 2.30006 5.75805 5.2339 
21 1 1 2.51158 5.42376 4.33822 
22 1 1 2.89768 4.54845 4.3375 
23 1 1 2.11183 4.03446 4.03475 
24 1 1 1.92822 3.20842 4.45956 
25 1 1 2.19851 2.38733 4.1172 
26 1 1 2.08912 1.85217 3.35027 
27 1 1 1.70568 2.58324 2.82762 
28 1 1 1.83198 3.47928 2.51621 
29 1 1 2.63061 3.97481 2.55286 
30 1 1 2.44346 4.89543 2.7953 
ITEM: TIMESTEP
10000
ITEM: NUMBER OF ATOMS
30
ITEM: BOX BOUNDS pp pp pp
-5.7758099999999999e+00 5.7758099999999999e+00
-5.7758099999999999e+00 5.7758099999999999e+00
-5.7758099999999999e+00 5.7758099999999999e+00
ITEM: ATOMS id mol type x y z 
1 1 1 -0.958663 4.77362 4.91151 
2 1 1 -0.0545045 4.54843 4.72507 
3 1 1 0.812526 4.3461 4.24793 
4 1 1 0.216634 3.74497 3.82915 
5 1 1 0.191833 2.98464 4.3858 
6 1 1 0.402645 2.11015 3.96097 
7 1 1 0.557712 1.31687 3.41598 
8 1 1 0.517422 0.644455 4.14205 
9 1 1 0.906301 1.08451 4.88631 
10 1 1 0.88143 1.94541 5.3622 
11 1 1 1.43199 2.6242 5.77468 
12 1 1 2.17601 2.61825 -5.21499 
13 1 1 3.05994 2.53799 -5.59102 
14 1 1 3.82246 3.12312 -5.49075 
15 1 1 3.33934 3.92149 -5.33866 
16 1 1 2.36958 4.10068 -5.26311 
17 1 1 1.65918 4.30368 5.69311 
18 1 1 1.0464 4.91991 -5.51303 
19 1 1 1.28706 -5.74155 -5.72888 
20 1 1 2.03591 5.79414 5.22641 
21 1 1 2.16414 5.60987 4.27327 
22 1 1 2.70845 4.81153 4.09222 
23 1 1 2.27042 4.02881 4.37201 
24 1 1 1.783 3.21722 4.31836 
25 1 1 1.70372 2.286 4.16057 
26 1 1 1.73465 2.21678 3.16581 
27 1 1 1.20717 2.92151 2.80081 
28 1 1 1.76465 3.42375 2.21246 
29 1 1 2.39375 4.13613 2.33127 
30 1 1 1.61845 4.55991 2.72804 
ITEM: TIMESTEP
11000
ITEM: NUMBER OF ATOMS
30
ITEM: BOX BOUNDS pp pp pp
-5.7758099999999999e+00 5.7758099999999999e+00
-5.7758099999999999e+00 5.7758099999999999e+00
-5.7758099999999999e+00 5.7758099999999999e+00
ITEM: ATOMS id mol type x y z 
1 1 1 -1.1645 4.29532 5.23929 
2 1 1 -0.59415 4.76918 4.62686 
3 1 1 0.283376 4.81441 4.26253 
4 1 1 0.145572 4.05754 3.5923 
5 1 1 0.28873 3.23739 4.00914 
6 1 1 0.162368 2.25825 4.02648 
7 1 1 0.274192 1.28548 3.97962 
8 1 1 0.94098 0.794964 4.52615 
9 1 1 1.60382 1.13477 5.16187 
10 1 1 1.12175 1.94531 5.37352 
11 1 1 1.58165 2.3511 -5.46134 
12 1 1 2.1249 2.24993 -4.66028 
13 1 1 3.07249 2.20183 -4.8672 
14 1 1 3.49627 3.0516 -4.79819 
15 1 1 3.40716 3.89611 -5.08439 
16 1 1 2.60326 4.35886 -5.33784 
17 1 1 1.86597 3.9887 5.71691 
18 1 1 1.00344 4.42107 -5.68924 
19 1 1 1.17385 5.31484 5.64257 
20 1 1 2.00161 5.50244 5.19345 
21 1 1 2.7209 5.39338 4.53768 
22 1 1 3.12657 4.56477 4.59366 
23 1 1 2.42328 4.03319 4.15092 
24 1 1 1.80049 3.39926 3.7809 
25 1 1 1.62486 2.4833 4.12946 
26 1 1 1.43496 2.00997 3.23905 
27 1 1 1.18836 2.64323 2.56092 
28 1 1 1.92342 3.16223 2.20086 
29 1 1 1.86607 4.11974 2.28232 
30 1 1 1.57641 4.71912 2.98812 
ITEM: TIMESTEP
12000
ITEM: NUMBER OF ATOMS
30
ITEM: BOX BOUNDS pp pp pp
-5.7758099999999999e+00 5.7758099999999999e+00
-5.7758099999999999e+00 5.7758099999999999e+00
-5.7758099999999999e+00 5.7758099999999999e+00
ITEM: ATOMS id mol type x y z 
1 1 1 -0.840085 4.51358 5.04059 
2 1 1 0.0155819 4.93023 4.84279 
3 1 1 0.160313 4.83941 3.91221 
4 1 1 0.617796 4.01675 3.73257 
5 1 1 0.443635 3.08644 3.78306 
6 1 1 0.26793 2.15404 4.05169 
7 1 1 0.311943 1.3033 3.63233 
8 1 1 0.635485 0.783211 4.40121 
9 1 1 1.42384 1.30652 4.67487 
10 1 1 1.40287 2.14169 5.17397 
11 1 1 1.53591 2.034 -5.43572 
12 1 1 1.79464 1.99193 -4.53328 
13 1 1 2.70279 2.3482 -4.35482 
14 1 1 3.43979 2.95891 -4.16059 
15 1 1 3.65348 3.52211 -4.90626 
16 1 1 2.77159 3.8531 -5.14246 
17 1 1 2.1197 3.8631 5.70639 
18 1 1 1.37908 4.47359 -5.71087 
19 1 1 1.46423 5.3756 5.4957 
20 1 1 2.06916 5.24878 4.74151 
21 1 1 3.00171 5.08553 4.65758 
22 1 1 3.12846 4.14921 4.65454 
23 1 1 2.71359 4.05286 3.79389 
24 1 1 1.94149 3.53274 4.00881 
25 1 1 2.12256 2.5832 4.03877 
26 1 1 2.08378 2.21538 3.16882 
27 1 1 1.52286 2.7233 2.5554 
28 1 1 2.1754 3.39146 2.38429 
29 1 1 1.8264 4.2545 2.18741 
30 1 1 0.991216 4.65317 2.4402 
ITEM: TIMESTEP
13000
ITEM: NUMBER OF ATOMS
30
ITEM: BOX BOUNDS pp pp pp
-5.7758099999999999e+00 5.7758099999999999e+00
-5.7758099999999999e+00 5.7758099999999999e+00
-5.7758099999999999e+00 5.7758099999999999e+00
ITEM: ATOMS id mol type x y z 
1 1 1 -1.2479 4.83477 5.17501 
2 1 1 -0.476247 4.34132 5.15727 
3 1 1 -0.116865 4.30881 4.24502 
4 1 1 0.64143 3.85288 3.81778 
5 1 1 0.271225 2.96504 3.61947 
6 1 1 0.175674 2.22654 4.26653 
7 1 1 -0.0690708 1.36216 3.9787 
8 1 1 0.269383 0.719215 4.6133 
9 1 1 1.22499 0.828381 4.74392 
10 1 1 1.35356 1.71253 5.12921 
11 1 1 1.09789 2.3553 -5.75608 
12 1 1 1.73965 2.09162 -5.05702 
13 1 1 2.4881 2.36522 -4.52588 
14 1 1 2.90849 2.87492 -3.85592 
15 1 1 3.20787 3.79422 -4.07417 
16 1 1 2.87949 3.8049 -5.00257 
17 1 1 2.32168 3.63933 -5.72455 
18 1 1 1.5683 4.18716 -5.69702 
19 1 1 1.69659 5.01525 5.38941 
20 1 1 2.28675 5.52233 4.77773 
21 1 1 3.15295 5.17728 4.9964 
22 1 1 3.41466 4.36663 4.52819 
23 1 1 2.82758 3.9369 3.84295 
24 1 1 1.98919 3.65823 4.16087 
25 1 1 1.69607 2.72267 4.11048 
26 1 1 1.89046 1.95816 3.52483 
27 1 1 1.92636 2.61553 2.77301 
28 1 1 2.15457 3.50118 2.55454 
29 1 1 1.38975 4.04708 2.39844 
30 1 1 0.650532 4.63545 2.47497 
ITEM: TIMESTEP
14000
ITEM: NUMBER OF ATOMS
30
ITEM: BOX BOUNDS pp pp pp
-5.7758099999999999e+00 5.7758099999999999e+00
-5.7758099999999999e+00 5.7758099999999999e+00
-5.7758099999999999e+00 5.7758099999999999e+00
ITEM: ATOMS id mol type x y z 
1 1 1 -1.55826 4.92923 4.54467 
2 1 1 -0.858286 4.35881 4.2595 
3 1 1 -0.21015 3.63959 4.29046 
4 1 1 0.494308 3.18401 3.74799 
5 1 1 0.192292 2.4266 3.30262 
6 1 1 0.114365 1.82597 4.06762 
7 1 1 0.00329104 0.92164 4.33752 
8 1 1 0.609078 0.256978 4.67942 
9 1 1 1.3617 0.730359 5.02196 
10 1 1 1.69578 1.63093 4.85694 
11 1 1 1.32129 2.31367 5.40906 
12 1 1 1.66396 2.23444 -5.21492 
13 1 1 2.07877 2.11938 -4.36356 
14 1 1 2.51383 2.93211 -4.01874 
15 1 1 2.14491 3.83285 -4.17852 
16 1 1 2.2536 3.83437 -5.1903 
17 1 1 2.31491 3.59329 5.45581 
18 1 1 1.47333 4.00907 5.18295 
19 1 1 1.29847 4.93355 4.82012 
20 1 1 2.06538 5.11825 4.28237 
21 1 1 2.76928 4.90846 4.93736 
22 1 1 3.33919 4.21289 4.47215 
23 1 1 2.9943 4.12263 3.59941 
24 1 1 2.18583 3.71722 3.88643 
25 1 1 1.90808 2.78281 3.95631 
26 1 1 1.87527 1.92774 3.55142 
27 1 1 1.6432 2.36066 2.70682 
28 1 1 1.67779 3.27576 3.04715 
29 1 1 1.48622 4.23244 3.04629 
30 1 1 0.605313 4.2244 2.67152 
ITEM: TIMESTEP
15000
ITEM: NUMBER OF ATOMS
30
ITEM: BOX BOUNDS pp pp pp
-5.7758099999999999e+00 5.7758099999999999e+00
-5.7758099999999999e+00 5.7758099999999999e+00
-5.7758099999999999e+00 5.7758099999999999e+00
ITEM: ATOMS id mol type x y z 
1 1 1 -1.67128 4.84765 4.58623 
2 1 1 -0.817833 4.3685 4.29518 
3 1 1 -0.187164 3.85509 4.76066 
4 1 1 0.244574 3.20833 4.16132 
5 1 1 0.414871 2.35906 4.54804 
6 1 1 0.300877 1.54423 4.14214 
7 1 1 0.0196483 0.608253 4.15913 
8 1 1 0.0844303 0.304536 5.08728 
9 1 1 0.906619 0.654116 5.35937 
10 1 1 1.43176 1.50567 5.29777 
11 1 1 0.99281 2.18699 -5.71944 
12 1 1 1.79399 1.89388 -5.29619 
13 1 1 2.01979 2.56201 -4.6735 
14 1 1 2.22656 3.29432 -4.07559 
15 1 1 2.51375 4.07849 -4.52056 
16 1 1 2.51377 3.74933 -5.46503 
17 1 1 2.16429 3.4973 5.28324 
18 1 1 1.3001 3.88347 5.39264 
19 1 1 1.19631 4.34884 4.59073 
20 1 1 1.9795 4.84331 4.32149 
21 1 1 2.90131 4.8 4.57465 
22 1 1 3.62008 4.34537 4.05927 
23 1 1 3.11047 3.59887 3.71754 
24 1 1 2.41917 3.32835 4.29404 
25 1 1 2.05738 2.40861 4.35803 
26 1 1 1.88921 1.64415 3.81296 
27 1 1 1.46553 2.17642 3.14879 
28 1 1 1.47015 2.96207 2.54613 
29 1 1 1.31804 3.70349 3.12726 
30 1 1 1.19398 4.54655 2.65791 
ITEM: TIMESTEP
16000
ITEM: NUMBER OF ATOMS
30
ITEM: BOX BOUNDS pp pp pp
-5.7758099999999999e+00 5.7758099999999999e+00
-5.7758099999999999e+00 5.7758099999999999e+00
-5.7758099999999999e+00 5.7758099999999999e+00
ITEM: ATOMS id mol type x y z 
1 1 1 -1.44807 4.74386 4.84898 
2 1 1 -0.825993 4.21681 4.31548 
3 1 1 -0.529682 3.26779 4.17325 
4 1 1 0.411043 3.10427 4.08554 
5 1 1 0.413072 2.26486 4.66283 
6 1 1 0.260768 1.43185 4.28464 
7 1 1 -0.117137 0.532952 4.2692 
8 1 1 0.2292 0.129333 5.0233 
9 1 1 0.940346 0.738947 5.38486 
10 1 1 1.64232 1.38616 5.31701 
11 1 1 1.3883 2.16196 -5.62871 
12 1 1 1.64882 1.88049 -4.73616 
13 1 1 2.40728 2.43644 -4.72225 
14 1 1 2.11555 3.36677 -4.60642 
15 1 1 2.45167 4.27068 -4.60043 
16 1 1 2.91461 4.29485 -5.44241 
17 1 1 2.26561 3.91297 5.53872 
18 1 1 1.36442 3.64033 5.3457 
19 1 1 1.06362 4.28942 4.6936 
20 1 1 1.76072 4.93886 4.43407 
21 1 1 2.70522 4.71825 4.52152 
22 1 1 3.32364 4.37986 3.8398 
23 1 1 2.64385 3.92692 3.35453 
24 1 1 2.14992 3.41169 3.99331 
25 1 1 2.35248 2.72041 4.64774 
26 1 1 2.12876 2.00219 4.0503 
27 1 1 1.52842 2.44819 3.46863 
28 1 1 1.51587 3.12929 2.76383 
29 1 1 1.06491 3.93615 3.09854 
30 1 1 1.46415 4.68107 2.65112 
ITEM: TIMESTEP
17000
ITEM: NUMBER OF ATOMS
30
ITEM: BOX BOUNDS pp pp pp
-5.7758099999999999e+00 5.7758099999999999e+00
-5.7758099999999999e+00 5.7758099999999999e+00
-5.7758099999999999e+00 5.7758099999999999e+00
ITEM: ATOMS id mol type x y z 
1 1 1 -0.381027 4.27725 5.16963 
2 1 1 -0.380548 4.17323 4.2159 
3 1 1 -0.0657929 3.2659 4.10707 
4 1 1 0.435038 2.64233 4.57254 
5 1 1 0.731776 1.72273 4.73398 
6 1 1 0.538411 1.1493 3.98694 
7 1 1 -0.223593 0.566624 4.00946 
8 1 1 0.243846 0.145109 4.72645 
9 1 1 0.936207 0.391122 5.33956 
10 1 1 1.76274 0.835104 5.67755 
11 1 1 1.49566 1.5834 -5.38049 
12 1 1 2.09301 1.78807 -4.68612 
13 1 1 2.3349 2.70752 -4.86181 
14 1 1 2.23148 3.16286 -4.01725 
15 1 1 1.96047 4.02942 -4.30641 
16 1 1 2.56547 4.25844 -5.01696 
17 1 1 2.068 3.87781 -5.73888 
18 1 1 1.16868 3.70806 5.44974 
19 1 1 1.25556 4.56026 4.9362 
20 1 1 2.07291 5.10868 4.72821 
21 1 1 2.98948 5.06271 4.47444 
22 1 1 3.45907 4.26132 4.19373 
23 1 1 2.87638 3.66945 3.71079 
24 1 1 2.12078 3.60362 4.27001 
25 1 1 2.27858 2.7487 4.66856 
26 1 1 2.12144 1.96685 4.0607 
27 1 1 1.4572 2.34757 3.43858 
28 1 1 1.7458 2.98519 2.71026 
29 1 1 1.43555 3.90823 3.00461 
30 1 1 2.14573 4.55244 2.78226 
ITEM: TIMESTEP
18000
ITEM: NUMBER OF ATOMS
30
ITEM: BOX BOUNDS pp pp pp
-5.7758099999999999e+00 5.7758099999999999e+00
-5.7758099999999999e+00 5.7758099999999999e+00
-5.7758099999999999e+00 5.7758099999999999e+00
ITEM: ATOMS id mol type x y z 
1 1 1 -0.298082 4.42651 4.86194 
2 1 1 0.141464 3.99101 4.10374 
3 1 1 0.599945 3.17482 3.8555 
4 1 1 0.95484 2.63337 4.631 
5 1 1 0.838121 1.6992 4.44397 
6 1 1 -0.0796362 1.71943 4.07168 
7 1 1 -0.280158 0.764555 4.00557 
8 1 1 0.543309 0.22371 4.01541 
9 1 1 0.921019 0.253417 4.89064 
10 1 1 1.42359 0.793599 5.53081 
11 1 1 1.27008 1.42473 -5.32958 
12 1 1 1.9738 1.68547 -4.7388 
13 1 1 2.21493 2.62654 -4.63449 
14 1 1 2.58828 3.35851 -4.08876 
15 1 1 1.89667 4.00521 -4.20095 
16 1 1 1.9336 4.23357 -5.14367 
17 1 1 2.10884 4.00108 5.50646 
18 1 1 1.17079 3.9226 5.25192 
19 1 1 1.09122 4.88135 5.08673 
20 1 1 1.93994 5.10093 4.70663 
21 1 1 2.8153 4.94678 4.33456 
22 1 1 3.58383 4.49104 4.03719 
23 1 1 3.28024 3.59783 4.01286 
24 1 1 2.37824 3.18535 3.97176 
25 1 1 2.24122 2.3135 4.21926 
26 1 1 1.78481 2.03556 3.35906 
27 1 1 1.09059 2.29155 2.76984 
28 1 1 1.34659 3.15386 2.42399 
29 1 1 1.59026 3.90184 2.93209 
30 1 1 1.6763 4.89448 3.07406 
ITEM: TIMESTEP
19000
ITEM: NUMBER OF ATOMS
30
ITEM: BOX BOUNDS pp pp pp
-5.7758099999999999e+00 5.7758099999999999e+00
-5.7758099999999999e+00 5.7758099999999999e+00
-5.7758099999999999e+00 5.7758099999999999e+00
ITEM: ATOMS id mol type x y z 
1 1 1 -0.132594 4.0489 4.70884 
2 1 1 0.126235 4.02636 3.77011 
3 1 1 0.644145 3.24929 3.69641 
4 1 1 0.968679 2.7053 4.3808 
5 1 1 0.654823 1.81794 4.61205 
6 1 1 -0.140693 1.44406 4.2735 
7 1 1 0.21889 0.892722 3.59597 
8 1 1 0.992608 0.460552 3.9596 
9 1 1 1.08099 0.387309 4.9513 
10 1 1 1.94525 0.642687 5.12345 
11 1 1 2.21711 1.51976 5.45294 
12 1 1 2.65181 1.83395 -5.31835 
13 1 1 2.00403 2.45778 -4.97708 
14 1 1 2.3584 2.92588 -4.21964 
15 1 1 2.17975 3.89078 -4.21885 
16 1 1 1.71877 4.12963 -5.05169 
17 1 1 2.2454 3.85183 5.71122 
18 1 1 1.71588 3.69834 4.92594 
19 1 1 1.43169 4.59281 5.01822 
20 1 1 1.87519 5.16791 4.41937 
21 1 1 2.80823 5.26392 4.32551 
22 1 1 3.33424 4.64451 3.80533 
23 1 1 3.08771 3.89674 4.38781 
24 1 1 2.57181 3.41717 3.68552 
25 1 1 2.2289 2.52202 3.75885 
26 1 1 1.69272 1.81792 3.39726 
27 1 1 1.24184 2.19501 2.6494 
28 1 1 1.55786 3.11216 2.53995 
29 1 1 1.27642 4.01151 2.5052 
30 1 1 1.84667 4.58105 3.02252 
ITEM: TIMESTEP
20000
ITEM: NUMBER OF ATOMS
30
ITEM: BOX BOUNDS pp pp pp
-5.7758099999999999e+00 5.7758099999999999e+00
-5.7758099999999999e+00 5.7758099999999999e+00
-5.7758099999999999e+00 5.7758099999999999e+00
ITEM: ATOMS id mol type x y z 
1 1 1 -0.33003 4.32483 4.4752 
2 1 1 0.219292 3.95197 3.80249 
3 1 1 0.26359 3.05854 3.51174 
4 1 1 0.452561 2.85394 4.43232 
5 1 1 0.0957564 2.00032 4.48242 
6 1 1 -0.134962 1.26191 3.85678 
7 1 1 0.273087 0.51565 3.38641 
8 1 1 1.1562 0.371164 3.76193 
9 1 1 1.64976 0.111467 4.53431 
10 1 1 1.70136 0.7479 5.2641 
11 1 1 1.9157 1.66183 5.11355 
12 1 1 2.425 2.00424 -5.69678 
13 1 1 1.82089 2.59352 -5.18349 
14 1 1 2.28438 2.94872 -4.44358 
15 1 1 2.14868 3.88932 -4.32342 
16 1 1 2.13131 4.48234 -5.03586 
17 1 1 2.25636 3.87534 -5.74468 
18 1 1 1.79295 3.48334 5.01527 
19 1 1 1.23813 4.18405 4.87252 
20 1 1 1.73629 4.70559 4.21826 
21 1 1 2.34074 5.23025 3.74003 
22 1 1 3.05385 4.57205 3.68383 
23 1 1 3.12139 3.85517 4.3027 
24 1 1 2.76842 3.07048 3.88953 
25 1 1 1.90616 2.60185 3.83555 
26 1 1 1.32618 1.85134 3.65251 
27 1 1 1.01495 1.83959 2.73764 
28 1 1 1.44864 2.52176 2.26497 
29 1 1 1.2558 3.38438 2.56605 
30 1 1 2.17743 3.74547 2.65091 
ITEM: TIMESTEP
21000
ITEM: NUMBER OF ATOMS
30
ITEM: BOX BOUNDS pp pp pp
-5.7758099999999999e+00 5.7758099999999999e+00
-5.7758099999999999e+00 5.7758099999999999e+00
-5.7758099999999999e+00 5.7758099999999999e+00
ITEM: ATOMS id mol type x y z 
1 1 1 -0.333273 4.38306 3.8397 
2 1 1 0.111748 3.63397 3.40035 
3 1 1 0.30998 2.90337 4.01402 
4 1 1 0.356016 2.54944 4.8935 
5 1 1 0.592928 1.59146 4.92017 
6 1 1 0.110898 1.27399 4.15773 
7 1 1 0.406323 0.417104 3.98225 
8 1 1 1.07378 -0.322739 3.90547 
9 1 1 1.74364 -0.0244276 4.5347 
10 1 1 1.85891 0.749879 5.06106 
11 1 1 2.02826 1.61809 5.44065 
12 1 1 2.14945 2.35135 -5.46915 
13 1 1 1.49206 2.57219 -4.81996 
14 1 1 1.91457 3.04951 -4.13987 
15 1 1 1.30908 3.78657 -4.2659 
16 1 1 1.77528 4.12009 -5.04826 
17 1 1 2.38107 3.81495 5.76591 
18 1 1 1.67452 3.49571 5.21835 
19 1 1 1.44491 3.76797 4.34806 
20 1 1 1.54436 4.35406 3.62555 
21 1 1 2.32908 4.86918 3.35402 
22 1 1 3.11368 4.42891 3.71427 
23 1 1 3.03558 3.71101 4.34128 
24 1 1 2.70246 2.84162 4.52388 
25 1 1 1.95625 2.25904 4.37392 
26 1 1 1.4187 1.94606 3.64733 
27 1 1 0.775512 2.15295 2.96934 
28 1 1 1.69285 2.45347 2.77828 
29 1 1 1.70745 3.37207 2.90504 
30 1 1 2.45497 3.55579 2.35703 
ITEM: TIMESTEP
22000
ITEM: NUMBER OF ATOMS
30
ITEM: BOX BOUNDS pp pp pp
-5.7758099999999999e+00 5.7758099999999999e+00
-5.7758099999999999e+00 5.7758099999999999e+00
-5.7758099999999999e+00 5.7758099999999999e+00
ITEM: ATOMS id mol type x y z 
1 1 1 0.332235 3.96765 3.18483 
2 1 1 0.567401 3.08157 3.29432 
3 1 1 0.111845 2.86858 4.09726 
4 1 1 -0.113873 2.43003 4.88237 
5 1 1 -0.0264747 1.46469 4.74765 
6 1 1 0.0229204 0.522607 4.50264 
7 1 1 0.592099 -0.0249875 3.9477 
8 1 1 1.1098 -0.580936 4.55111 
9 1 1 1.41799 0.161617 5.13006 
10 1 1 1.7231 1.0287 4.84008 
11 1 1 1.55691 1.7325 5.4894 
12 1 1 2.23264 2.19094 -5.58938 
13 1 1 2.26279 2.84875 -4.8689 
14 1 1 2.26053 3.26249 -4.00648 
15 1 1 1.50847 3.76626 -4.36577 
16 1 1 1.68652 4.03487 -5.30055 
17 1 1 2.41144 3.74449 5.79313 
18 1 1 1.76283 3.51641 5.12837 
19 1 1 1.39573 3.66194 4.24879 
20 1 1 1.6105 4.41012 3.65307 
21 1 1 2.52786 4.4178 3.24047 
22 1 1 3.51968 4.47617 3.3466 
23 1 1 3.43952 3.74733 3.95066 
24 1 1 2.86913 3.00009 4.05183 
25 1 1 2.2405 2.30563 4.27699 
26 1 1 1.29409 2.34002 4.23786 
27 1 1 1.07313 1.8508 3.43388 
28 1 1 1.78974 2.19923 2.88712 
29 1 1 1.93141 3.14972 2.87081 
30 1 1 2.24522 3.41354 1.99401 
ITEM: TIMESTEP
23000
ITEM: NUMBER OF ATOMS
30
ITEM: BOX BOUNDS pp pp pp
-5.7758099999999999e+00 5.7758099999999999e+00
-5.7758099999999999e+00 5.7758099999999999e+00
-5.7758099999999999e+00 5.7758099999999999e+00
ITEM: ATOMS id mol type x y z 
1 1 1 0.288009 3.78715 2.78689 
2 1 1 0.67674 3.24833 3.43235 
3 1 1 0.489005 3.09655 4.34525 
4 1 1 0.164944 2.49016 5.08519 
5 1 1 0.0461775 1.67517 4.62672 
6 1 1 0.381956 0.91914 4.17794 
7 1 1 0.545025 -0.033524 4.09022 
8 1 1 0.663392 -0.646505 4.81415 
9 1 1 1.51678 -0.312693 5.10888 
10 1 1 1.66693 0.587407 4.91466 
11 1 1 1.43012 1.44491 5.3136 
12 1 1 1.99548 2.17635 5.65229 
13 1 1 1.70478 2.16297 -4.97323 
14 1 1 1.70703 2.94799 -4.39718 
15 1 1 1.14942 3.61279 -4.74233 
16 1 1 1.74957 4.15077 -5.21656 
17 1 1 2.51091 3.7058 -5.59792 
18 1 1 1.99557 3.55514 5.17376 
19 1 1 1.55674 4.23264 4.61898 
20 1 1 1.76294 4.1704 3.66706 
21 1 1 2.50843 4.69707 3.42645 
22 1 1 3.44361 4.8989 3.36011 
23 1 1 3.4268 4.09616 3.92309 
24 1 1 2.96754 3.20977 4.03037 
25 1 1 2.13757 2.71704 4.21753 
26 1 1 1.51967 1.99561 4.13509 
27 1 1 1.60072 1.92078 3.15536 
28 1 1 1.77822 2.65712 2.57686 
29 1 1 2.20869 3.48464 2.31273 
30 1 1 2.47766 3.93233 1.51774 
ITEM: TIMESTEP
24000
ITEM: NUMBER OF ATOMS
30
ITEM: BOX BOUNDS pp pp pp
-5.7758099999999999e+00 5.7758099999999999e+00
-5.7758099999999999e+00 5.7758099999999999e+00
-5.7758099999999999e+00 5.7758099999999999e+00
ITEM: ATOMS id mol type x y z 
1 1 1 0.267161 3.49278 2.66854 
2 1 1 0.400609 3.20229 3.6046 
3 1 1 0.205975 2.60478 4.36172 
4 1 1 0.234139 1.88164 5.01379 
5 1 1 0.276141 1.57418 4.1186 
6 1 1 0.764264 0.705758 4.28114 
7 1 1 0.250269 -0.0815472 4.1603 
8 1 1 0.49383 -0.660835 4.8714 
9 1 1 1.27535 -0.361832 5.36502 
10 1 1 1.99788 0.230567 5.40979 
11 1 1 1.83093 1.07877 5.02064 
12 1 1 2.09615 1.82281 5.60062 
13 1 1 1.7011 1.55179 -5.1155 
14 1 1 1.47514 2.3326 -4.57506 
15 1 1 1.07239 2.93878 -5.13948 
16 1 1 1.77828 3.57592 -4.97489 
17 1 1 2.3825 3.62777 -5.68209 
18 1 1 2.00649 3.87162 5.01879 
19 1 1 1.57447 3.76598 4.19443 
20 1 1 1.78166 4.41243 3.47756 
21 1 1 2.48785 4.887 3.93386 
22 1 1 3.27336 4.72745 3.39138 
23 1 1 3.6063 3.98407 3.96114 
24 1 1 3.33632 3.1529 4.33209 
25 1 1 2.63592 2.50797 4.3649 
26 1 1 1.78828 2.10313 4.14625 