LAMMPS (31 Mar 2017)
# 2-dimensional monoatomic gas

# basic parameters
units		lj
atom_style	atomic
boundary        p p p # periodic
dimension      	2

## style of the pair potential ##
#pair_style      soft 2.5 # soft potential
pair_style      lj/cut 2.5 # Lennard-Jones

# read in a conformation
read_data       2d_ideal.data
  orthogonal box = (0 0 0) to (22.3607 22.3607 2.23607)
  1 by 1 by 1 MPI processor grid
  reading atoms ...
  100 atoms
  reading velocities ...
  100 velocities
reset_timestep	0

# Parameters for pair_style soft (here: interactions off)
#pair_coeff      1 1 0.0 2.5

# parameters for Lennard-Jones (standard values)
pair_coeff	1 1 1.0 1.0 2.5

# verlet-integration, thermostating, enforce 2d simulation
fix		1 all nve
fix             2 all langevin 1.5 1.5 1.0 8217311
fix             2d all enforce2d

##############################
##### Velocity Histogram #####
##############################

# define absolute velocity of an atom
variable        v_abs atom sqrt(vx*vx+vy*vy+vz*vz)
fix             3 all ave/histo 1000 1000 1000000  0. 10. 50 v_v_abs file v_hist.txt mode vector

###############################
## Mean Squared Displacement ##
###############################

# calculate and output MSD at regular time intervals
compute         1 all msd
fix             4 all ave/time 10 10 100 c_1[*] file msd.txt

# print out thermodynamic information regularly
thermo		10000

# run the simulation for X steps
run		1000000
Neighbor list info ...
  update every 1 steps, delay 10 steps, check yes
  max neighbors/atom: 2000, page size: 100000
  master list distance cutoff = 2.8
  ghost atom cutoff = 2.8
  binsize = 1.4, bins = 16 16 2
  1 neighbor lists, perpetual/occasional/extra = 1 0 0
  (1) pair lj/cut, perpetual
      attributes: half, newton on
      pair build: half/bin/atomonly/newton
      stencil: half/bin/2d/newton
      bin: standard
Per MPI rank memory allocation (min/avg/max) = 3.05 | 3.05 | 3.05 Mbytes
Step Temp E_pair E_mol TotEng Press 
       0    1.4116397  -0.47755103            0   0.91997226    0.2697198 
   10000    1.7032564   -0.4943543            0    1.1918696   0.44905388 
   20000    1.2523181   -0.4225782            0   0.81721669   0.28991825 
   30000    1.6645477  -0.55072841            0    1.0971738   0.32380257 
   40000    1.5021021  -0.45290553            0    1.0341756   0.26502482 
   50000    1.5415232  -0.52740157            0   0.99870637   0.47180556 
   60000     1.586611  -0.50389092            0    1.0668539   0.34131823 
   70000    1.7359135   -0.4166433            0    1.3019111   0.47126445 
   80000    1.6169361  -0.46851041            0    1.1322564   0.26433394 
   90000    1.4711043  -0.58443213            0   0.87196113   0.29209052 
  100000    1.5375728  -0.43838714            0    1.0838099   0.45960509 
  110000    1.3187517  -0.41106683            0   0.89449739   0.36084688 
  120000    1.6120513  -0.59061465            0    1.0053161   0.34751763 
  130000    1.2807805  -0.49497075            0   0.77300192   0.26812689 
  140000    1.5118703  -0.44373414            0    1.0530175    0.2687773 
  150000    1.1179935  -0.58595002            0   0.52086359   0.25075941 
  160000    1.6733397  -0.45188801            0    1.2047183   0.33455514 
  170000    1.5382415  -0.49229019            0    1.0305689   0.25748205 
  180000    1.3703677  -0.51912449            0   0.83753952   0.18013894 
  190000    1.5028017  -0.57578028            0   0.91199341   0.37712472 
  200000    1.6923019  -0.48424313            0    1.1911357   0.28681215 
  210000     1.745439  -0.56701083            0    1.1609737    0.4309537 
  220000     1.477287  -0.49876563            0   0.96374853   0.30733888 
  230000    1.5445059  -0.45657715            0    1.0724837   0.44192799 
  240000    1.7156613  -0.36320675            0     1.335298    0.5421506 
  250000    1.5609555  -0.55355494            0   0.99179103   0.31656207 
  260000    1.4489623  -0.53055147            0   0.90392119   0.30506855 
  270000    1.6630234   -0.4739095            0    1.1724836   0.38212989 
  280000    1.7129167  -0.42293461            0    1.2728529   0.58050569 
  290000    1.4460117  -0.57925338            0   0.85229819   0.17833529 
  300000    1.4793305  -0.43037547            0    1.0341618   0.44011114 
  310000    1.3719192  -0.44202135            0   0.91617869   0.45958278 
  320000    1.8699625  -0.52279504            0    1.3284679   0.26463945 
  330000    1.4729402  -0.50575398            0   0.95245682   0.29899398 
  340000     1.505711  -0.43588441            0    1.0547694   0.25169556 
  350000    1.4597816  -0.48806117            0    0.9571226   0.24822783 
  360000    1.7385623  -0.45534498            0    1.2658317   0.47140812 
  370000    1.3428201  -0.44010376            0   0.88928817   0.26021579 
  380000    1.6889656  -0.40825883            0    1.2638171   0.36427388 
  390000    1.4138687   -0.4993486            0   0.90038141   0.19414327 
  400000    1.4062755  -0.38509558            0    1.0071171   0.27717731 
  410000    1.3807011  -0.53005753            0    0.8368366   0.32686522 
  420000    1.4902737  -0.45251885            0    1.0228522   0.28332806 
  430000    1.6148542       -0.437            0    1.1617057   0.29776935 
  440000    1.2233177  -0.41182125            0   0.79926329   0.37975908 
  450000    1.6349898  -0.49607095            0     1.122569   0.27733893 
  460000    1.5021771   -0.4470321            0    1.0401232   0.41995687 
  470000    1.3800132  -0.43669436            0   0.92951872   0.37500166 
  480000    1.2933677  -0.49194232            0    0.7884917   0.31105233 
  490000    1.4903087   -0.5801666            0     0.895239   0.27369801 
  500000    1.4572414   -0.4782192            0   0.96444974   0.26949014 
  510000    1.5002795  -0.55186811            0   0.93340864   0.24402375 
  520000    1.5519742  -0.45834618            0    1.0781083   0.31876556 
  530000    1.5153797  -0.46618552            0    1.0340404   0.24299086 
  540000    1.5881761  -0.45021646            0    1.1220779   0.28686534 
  550000    1.6065492    -0.496613            0    1.0938708   0.32885647 
  560000    1.7364712  -0.49436628            0    1.2247402   0.38550531 
  570000    1.3710039  -0.43585416            0   0.92143974   0.49742851 
  580000    1.2403395  -0.46576976            0   0.76216629    0.2402701 
  590000    1.3825458  -0.45558155            0   0.91313882   0.28034082 
  600000    1.4610124  -0.48035061            0   0.96605168   0.24633377 
  610000    1.5423114  -0.40530256            0    1.1215858   0.51199619 
  620000    1.6314809  -0.49229317            0    1.1228729   0.33078252 
  630000    1.7893097  -0.50156674            0    1.2698499   0.30688248 
  640000    1.3773429  -0.46350429            0   0.90006514    0.2645225 
  650000    1.3715167  -0.49097005            0   0.86683153   0.33176029 
  660000    1.6809417  -0.53702482            0    1.1271075   0.37297554 
  670000    1.6857133  -0.39604693            0    1.2728093   0.29673501 
  680000     1.480598  -0.60924952            0   0.85654255   0.27870722 
  690000    1.8082228  -0.54906334            0    1.2410772   0.27396761 
  700000    1.2381663   -0.4989453            0   0.72683938   0.34908119 
  710000    1.5153987  -0.44119749            0    1.0590473   0.49096923 
  720000    1.6095652    -0.525157            0    1.0683126   0.24917505 
  730000    1.2759667  -0.45331002            0   0.80989697   0.25177191 
  740000    1.6425384  -0.38228558            0    1.2438275   0.37856434 
  750000    1.5269166  -0.42875605            0    1.0828914   0.41018093 
  760000     1.124661  -0.52778714            0   0.58562723   0.25872658 
  770000      1.48768   -0.3637927            0    1.1090105   0.45624737 
  780000    1.4690935  -0.50723538            0   0.94716722   0.30263505 
  790000    1.5244003  -0.45621599            0    1.0529403   0.21663285 
  800000    1.3536649  -0.46874027            0     0.871388   0.33800468 
  810000    1.6381468   -0.5528677            0    1.0688976   0.37069282 
  820000    1.5866872  -0.50367348            0    1.0671468   0.33615051 
  830000    1.6118544  -0.46043504            0    1.1353008   0.24587885 
  840000    1.6387502  -0.58444261            0    1.0379201   0.28630737 
  850000    1.2621344  -0.57855668            0   0.67095638   0.22164026 
  860000    1.5380671  -0.52147364            0    1.0012128    0.3259068 
  870000    1.7751679  -0.45605937            0    1.3013569   0.29123897 
  880000    1.5177897  -0.47088743            0    1.0317243   0.22885068 
  890000    1.6232219  -0.52092821            0    1.0860614   0.38526904 
  900000    1.4829052  -0.48285194            0   0.98522421   0.36197098 
  910000    1.5899629  -0.47548148            0    1.0985818   0.41752054 
  920000    1.6030591  -0.59243274            0    0.9945958   0.28051754 
  930000    1.5854187  -0.46868022            0    1.1008843   0.41776086 
  940000    1.5335642   -0.4946092            0    1.0236194   0.23452347 
  950000    1.4572025  -0.50795998            0   0.93467049   0.38410909 
  960000    1.4213981  -0.47328715            0   0.93389696    0.4054325 
  970000    1.7287106  -0.45759501            0    1.2538285   0.44615339 
  980000    1.4294904  -0.54430032            0   0.87089513   0.25710432 
  990000    1.4429688   -0.5606518            0   0.86788731    0.2527071 
 1000000    1.3619788  -0.49678885            0   0.85157019   0.38660264 
Loop time of 12.3368 on 1 procs for 1000000 steps with 100 atoms

Performance: 35017121.820 tau/day, 81058.152 timesteps/s
100.0% CPU use with 1 MPI tasks x no OpenMP threads

MPI task timing breakdown:
Section |  min time  |  avg time  |  max time  |%varavg| %total
---------------------------------------------------------------
Pair    | 3.6033     | 3.6033     | 3.6033     |   0.0 | 29.21
Neigh   | 1.7222     | 1.7222     | 1.7222     |   0.0 | 13.96
Comm    | 0.5282     | 0.5282     | 0.5282     |   0.0 |  4.28
Output  | 0.0013452  | 0.0013452  | 0.0013452  |   0.0 |  0.01
Modify  | 6.1187     | 6.1187     | 6.1187     |   0.0 | 49.60
Other   |            | 0.3631     |            |       |  2.94

Nlocal:    100 ave 100 max 100 min
Histogram: 1 0 0 0 0 0 0 0 0 0
Nghost:    50 ave 50 max 50 min
Histogram: 1 0 0 0 0 0 0 0 0 0
Neighs:    222 ave 222 max 222 min
Histogram: 1 0 0 0 0 0 0 0 0 0

Total # of neighbors = 222
Ave neighs/atom = 2.22
Neighbor list builds = 99918
Dangerous builds = 99124

# write out the final conformation (to continue)
write_data	2d_lj_final.data
Total wall time: 0:00:12
