ITEM: TIMESTEP
0
ITEM: NUMBER OF ATOMS
100
ITEM: BOX BOUNDS pp pp pp
0.0000000000000000e+00 1.0000000000000000e+02
0.0000000000000000e+00 1.0000000000000000e+02
0.0000000000000000e+00 1.0000000000000000e+02
ITEM: ATOMS id mol type x y z 
1 1 1 89.8118 4.61397 0.845749 
2 1 1 89.395 4.89513 1.73067 
3 1 1 89.0866 5.8887 1.95745 
4 1 1 89.7909 6.12507 2.57311 
5 1 1 90.6783 6.26688 2.91589 
6 1 1 90.8735 5.99381 3.77071 
7 1 1 91.5287 5.70099 3.09533 
8 1 1 92.1029 5.47632 2.19273 
9 1 1 91.5534 5.37772 1.47183 
10 1 1 91.4317 4.46452 1.14026 
11 1 1 92.3055 4.653 0.800055 
12 1 1 93.0364 4.01258 1.07657 
13 1 1 93.7536 4.27166 1.70699 
14 1 1 93.6076 3.31121 1.76482 
15 1 1 92.7483 2.99535 1.63835 
16 1 1 92.4665 3.42834 2.35498 
17 1 1 92.3952 3.05301 3.21724 
18 1 1 92.4437 2.22379 3.68373 
19 1 1 91.8945 2.06032 3.01253 
20 1 1 91.6867 1.35879 3.61428 
21 1 1 90.8219 1.67945 3.80391 
22 1 1 90.6966 2.69908 3.59705 
23 1 1 91.4138 2.53551 4.27922 
24 1 1 91.0594 2.23263 5.13222 
25 1 1 92.0265 2.0896 5.47295 
26 1 1 92.7685 1.64736 5.81462 
27 1 1 92.5534 0.651618 5.68218 
28 1 1 93.4557 0.592322 5.27541 
29 1 1 94.0504 1.20549 4.7856 
30 1 1 94.7785 0.655568 4.79827 
31 1 1 95.5804 0.104069 4.73206 
32 1 1 96.4668 0.400019 5.01511 
33 1 1 96.4414 0.431045 5.96047 
34 1 1 95.865 1.22141 5.93431 
35 1 1 95.9388 1.56639 6.95885 
36 1 1 95.2198 0.911391 7.16308 
37 1 1 95.1019 1.60832 7.75203 
38 1 1 95.3923 1.63338 8.64222 
39 1 1 95.1875 2.50735 8.28586 
40 1 1 94.2203 2.54419 8.23096 
41 1 1 94.3631 3.6542 8.108 
42 1 1 94.1199 4.55768 7.89766 
43 1 1 93.1611 4.31411 7.70623 
44 1 1 93.3399 4.12789 8.66918 
45 1 1 92.8755 4.93924 8.62385 
46 1 1 92.417 5.0665 9.42808 
47 1 1 91.7936 5.56623 9.94025 
48 1 1 91.8738 5.65155 10.9277 
49 1 1 91.59 6.3147 11.5556 
50 1 1 90.8427 6.87147 11.8072 
51 1 1 90.9348 7.14555 10.8715 
52 1 1 90.0093 6.90132 10.6811 
53 1 1 89.9206 7.10957 9.72016 
54 1 1 89.7566 7.63292 8.78474 
55 1 1 89.8838 8.58608 8.6107 
56 1 1 90.5514 8.5242 7.90327 
57 1 1 90.3146 9.10498 7.16548 
58 1 1 90.0323 8.3478 6.5282 
59 1 1 90.6168 8.37832 5.74354 
60 1 1 90.4105 9.32387 5.35978 
61 1 1 90.3876 9.56759 4.4883 
62 1 1 90.8569 10.2031 4.08682 
63 1 1 91.15 9.56593 3.40811 
64 1 1 91.793 10.0249 2.72921 
65 1 1 91.3454 9.72586 1.89741 
66 1 1 92.0091 10.5104 1.8145 
67 1 1 92.9227 10.4897 1.84999 
68 1 1 92.5323 11.0273 2.58011 
69 1 1 92.1713 11.643 1.98142 
70 1 1 93.0154 11.6221 1.51041 
71 1 1 93.2825 11.7118 0.564668 
72 1 1 93.6802 12.5431 0.517 
73 1 1 93.5374 12.6315 99.5369 
74 1 1 94.3206 13.2226 99.4477 
75 1 1 93.6884 13.5676 98.8649 
76 1 1 93.9341 13.2943 97.9966 
77 1 1 93.804 13.6365 97.1058 
78 1 1 94.1502 12.8189 96.6216 
79 1 1 94.9181 12.9048 96.0616 
80 1 1 94.1105 13.0172 95.5323 
81 1 1 94.7669 13.4953 95.0713 
82 1 1 94.5642 14.3163 95.3489 
83 1 1 94.5909 15.2557 95.4698 
84 1 1 94.4348 16.1367 95.1258 
85 1 1 93.5566 15.9391 95.7051 
86 1 1 92.5458 16.2816 95.8791 
87 1 1 91.9381 15.5002 95.9472 
88 1 1 91.2212 15.764 95.3312 
89 1 1 90.7926 14.8457 95.6283 
90 1 1 90.4088 14.9353 96.6146 
91 1 1 90.4143 14.2191 97.1599 
92 1 1 90.3128 14.361 98.1598 
93 1 1 89.7808 14.902 97.5828 
94 1 1 88.8261 14.7327 97.9191 
95 1 1 87.9311 14.4394 97.9259 
96 1 1 87.9383 13.5111 97.681 
97 1 1 87.3452 13.1068 98.4211 
98 1 1 87.1114 13.9929 98.7167 
99 1 1 86.9662 14.9477 98.488 
100 1 1 86.7482 14.3491 97.8161 
ITEM: TIMESTEP
10000
ITEM: NUMBER OF ATOMS
100
ITEM: BOX BOUNDS pp pp pp
0.0000000000000000e+00 1.0000000000000000e+02
0.0000000000000000e+00 1.0000000000000000e+02
0.0000000000000000e+00 1.0000000000000000e+02
ITEM: ATOMS id mol type x y z 
1 1 1 94.3195 4.61429 96.7459 
2 1 1 94.2518 3.69097 96.6303 
3 1 1 94.4541 3.36955 97.6747 
4 1 1 94.127 3.71582 98.4338 
5 1 1 94.4606 2.78684 98.8112 
6 1 1 94.1784 2.22556 99.5034 
7 1 1 95.1668 2.30065 99.4401 
8 1 1 95.3222 1.93319 0.288314 
9 1 1 96.1436 1.82603 99.8035 
10 1 1 95.8518 0.932272 0.0180742 
11 1 1 95.9779 0.778555 99.109 
12 1 1 96.5192 1.45776 98.675 
13 1 1 97.3302 1.42621 99.2478 
14 1 1 97.045 1.1037 0.0907451 
15 1 1 97.4317 0.707321 0.890267 
16 1 1 96.6418 0.97641 1.57093 
17 1 1 95.7945 0.461251 1.60923 
18 1 1 95.4916 0.741729 2.46987 
19 1 1 95.2793 1.43422 3.17052 
20 1 1 94.3239 1.5255 3.11778 
21 1 1 94.4571 0.795422 3.72613 
22 1 1 93.9484 1.18962 4.44396 
23 1 1 94.6205 0.996185 5.15666 
24 1 1 94.1908 0.117924 5.19064 
25 1 1 94.5057 0.413859 6.19492 
26 1 1 95.3242 99.8287 6.01843 
27 1 1 95.902 0.546173 6.26014 
28 1 1 96.7013 0.467255 6.76687 
29 1 1 96.4686 1.34746 6.42663 
30 1 1 96.3435 2.32545 6.69276 
31 1 1 96.2427 3.29012 7.14118 
32 1 1 95.415 2.869 7.25456 
33 1 1 94.9476 2.91664 8.14626 
34 1 1 94.5534 2.2932 7.45084 
35 1 1 93.541 2.28685 7.62203 
36 1 1 92.959 1.57207 7.43843 
37 1 1 92.3949 2.30373 7.7043 
38 1 1 91.5742 1.91604 7.93482 
39 1 1 92.3182 1.45992 8.37406 
40 1 1 92.0876 1.50968 9.29443 
41 1 1 92.0427 2.47388 9.16706 
42 1 1 92.3647 3.29886 9.80838 
43 1 1 91.4676 3.66007 9.77439 
44 1 1 91.4972 3.95048 8.77974 
45 1 1 91.9693 4.76456 9.09597 
46 1 1 92.2483 5.41293 8.37496 
47 1 1 92.4311 6.29425 7.91196 
48 1 1 93.4616 6.3478 8.28346 
49 1 1 93.7228 7.35831 8.45896 
50 1 1 93.6259 7.33668 7.42754 
51 1 1 94.3924 7.57711 6.9722 
52 1 1 94.4293 8.00233 6.0752 
53 1 1 94.2205 8.62796 6.75502 
54 1 1 94.64 9.28065 6.21527 
55 1 1 94.4579 9.54452 5.32479 
56 1 1 95.0139 9.36279 4.535 
57 1 1 95.5672 10.0814 4.21096 
58 1 1 95.8119 10.6677 4.94041 
59 1 1 95.3113 11.2055 4.39043 
60 1 1 95.3122 11.4245 3.46383 
61 1 1 95.5314 12.3376 2.84885 
62 1 1 94.933 11.9135 2.19981 
63 1 1 95.0247 10.9668 1.94956 
64 1 1 95.9047 11.4497 2.11169 
65 1 1 96.5426 12.1544 2.04294 
66 1 1 97.3996 12.6848 2.02326 
67 1 1 98.1468 13.1748 1.57669 
68 1 1 98.2471 12.4834 0.900457 
69 1 1 97.941 11.5446 0.633232 
70 1 1 97.5163 10.7001 0.778028 
71 1 1 98.0404 10.6282 99.9669 
72 1 1 97.4963 11.0218 99.1022 
73 1 1 97.079 11.4489 98.4085 
74 1 1 96.6901 10.4898 98.3803 
75 1 1 97.1373 10.3112 97.5865 
76 1 1 96.256 10.2306 97.2406 
77 1 1 95.3998 10.2158 97.6467 
78 1 1 95.1645 11.0831 97.9207 
79 1 1 94.443 11.6865 98.0738 
80 1 1 94.0125 10.8448 98.3703 
81 1 1 93.9008 11.5737 99.04 
82 1 1 93.0219 11.7474 99.3461 
83 1 1 92.1827 12.307 99.1134 
84 1 1 92.3087 12.1811 0.0176454 
85 1 1 91.4609 11.7755 99.8885 
86 1 1 92.0554 11.1213 99.3633 
87 1 1 91.7144 10.3266 99.8244 
88 1 1 90.8564 10.2979 0.297837 
89 1 1 90.9907 10.7662 1.10235 
90 1 1 90.0284 11.0661 1.15429 
91 1 1 89.4838 10.7171 2.03362 
92 1 1 88.5142 10.6859 2.16866 
93 1 1 87.9152 11.4014 2.14183 
94 1 1 87.6692 12.2292 2.52376 
95 1 1 88.342 12.6775 2.04485 
96 1 1 88.9953 13.2049 1.67831 
97 1 1 89.2994 13.9537 2.19736 
98 1 1 88.987 14.7266 1.72581 
99 1 1 88.8455 14.6298 0.74856 
100 1 1 88.2318 14.7747 99.966 
ITEM: TIMESTEP
20000
ITEM: NUMBER OF ATOMS
100
ITEM: BOX BOUNDS pp pp pp
0.0000000000000000e+00 1.0000000000000000e+02
0.0000000000000000e+00 1.0000000000000000e+02
0.0000000000000000e+00 1.0000000000000000e+02
ITEM: ATOMS id mol type x y z 
1 1 1 93.7899 1.64452 94.2079 
2 1 1 92.8785 1.91287 94.4767 
3 1 1 92.0251 2.21618 94.6371 
4 1 1 92.2272 2.88489 93.9078 
5 1 1 93.1762 3.09107 93.7407 
6 1 1 93.4224 3.73776 94.3033 
7 1 1 93.5493 4.34806 95.0271 
8 1 1 94.2619 5.04359 95.2765 
9 1 1 94.6633 4.62019 96.0771 
10 1 1 93.9336 4.06481 96.1405 
11 1 1 92.8916 4.06425 96.0374 
12 1 1 92.2965 4.19979 96.7947 
13 1 1 92.2426 3.33604 97.367 
14 1 1 93.1258 2.95941 97.4114 
15 1 1 93.8451 3.59425 97.477 
16 1 1 94.3089 3.75877 98.3215 
17 1 1 94.2509 2.77938 98.2854 
18 1 1 95.1842 2.99151 98.5368 
19 1 1 94.8296 2.53718 99.4455 
20 1 1 94.9903 1.52292 99.4435 
21 1 1 94.9541 0.72092 0.0330625 
22 1 1 94.24 0.763189 0.78727 
23 1 1 94.0387 1.64664 1.10926 
24 1 1 94.4119 2.39759 1.53963 
25 1 1 94.5415 3.32088 1.25596 
26 1 1 93.8527 3.95337 1.49918 
27 1 1 93.7286 3.92382 2.43205 
28 1 1 93.6226 2.94441 2.40781 
29 1 1 92.7603 3.09738 2.76712 
30 1 1 91.9101 2.55482 2.66966 
31 1 1 91.8765 1.6859 3.06416 
32 1 1 91.0707 1.4793 3.56752 
33 1 1 90.2606 1.63771 3.00719 
34 1 1 90.1167 1.37521 3.92902 
35 1 1 89.9398 2.2114 4.29067 
36 1 1 90.0361 3.14478 4.64123 
37 1 1 90.8904 3.08922 5.0804 
38 1 1 91.0977 3.49374 5.94835 
39 1 1 92.0634 3.42524 5.69574 
40 1 1 91.8368 3.77179 6.66381 
41 1 1 91.6933 3.25745 7.39218 
42 1 1 91.6151 3.52262 8.2587 
43 1 1 92.2215 3.26774 9.00643 
44 1 1 93.0893 3.64209 9.13098 
45 1 1 94.0644 3.46556 9.10577 
46 1 1 94.7963 3.1177 8.54253 
47 1 1 94.2917 3.21161 7.67616 
48 1 1 94.9142 3.7429 7.10654 
49 1 1 94.724 2.91073 6.65277 
50 1 1 95.2793 2.18101 6.40482 
51 1 1 96.1294 1.7025 6.24461 
52 1 1 97.0037 1.79852 5.85581 
53 1 1 97.4859 2.6918 6.00147 
54 1 1 97.6918 3.51747 5.49914 
55 1 1 97.022 4.24009 5.26972 
56 1 1 96.4092 4.23201 6.01862 
57 1 1 95.6808 4.86064 5.96041 
58 1 1 95.0214 5.55558 6.11645 
59 1 1 94.4218 6.24593 5.80374 
60 1 1 93.5738 5.95868 5.57016 
61 1 1 92.7493 6.49896 5.66916 
62 1 1 93.3864 6.9969 6.18074 
63 1 1 93.5566 7.85674 6.58694 
64 1 1 93.3052 8.71049 6.62305 
65 1 1 93.1289 9.42046 7.33499 
66 1 1 92.4308 10.2274 7.22447 
67 1 1 91.5125 9.92808 7.14286 
68 1 1 90.6711 10.3649 7.47611 
69 1 1 90.2925 9.56336 7.9872 
70 1 1 90.246 9.4494 6.9525 
71 1 1 89.5851 9.99013 6.43209 
72 1 1 89.578 10.8018 5.73234 
73 1 1 89.8858 11.4232 6.33868 
74 1 1 90.4389 12.0334 5.80529 
75 1 1 91.3446 12.2792 5.81559 
76 1 1 92.0378 11.6766 6.15619 
77 1 1 92.8552 11.3438 5.65327 
78 1 1 93.7228 11.3121 5.04162 
79 1 1 92.7909 11.0751 4.63968 
80 1 1 92.3872 10.2325 4.34412 
81 1 1 92.7861 9.42888 4.01479 
82 1 1 91.7882 9.4594 4.28532 
83 1 1 91.0037 9.02182 4.67215 
84 1 1 91.0742 8.82095 3.80141 
85 1 1 90.9161 9.38785 3.05653 
86 1 1 90.9357 8.52594 2.64867 
87 1 1 90.8638 8.72607 1.54647 
88 1 1 90.4844 9.46216 1.03829 
89 1 1 90.5769 10.3142 1.44405 
90 1 1 90.4299 11.1273 2.05475 
91 1 1 89.6376 11.5906 1.59355 
92 1 1 89.9135 11.391 0.725503 
93 1 1 89.0659 11.7799 0.441084 
94 1 1 89.1094 10.961 99.8731 
95 1 1 88.5953 10.2381 99.4346 
96 1 1 87.7452 10.4519 98.9609 
97 1 1 87.624 11.3592 99.0212 
98 1 1 87.4095 12.0784 98.5519 
99 1 1 86.5253 12.0371 98.3339 
100 1 1 86.3836 12.1161 97.3539 
ITEM: TIMESTEP
30000
ITEM: NUMBER OF ATOMS
100
ITEM: BOX BOUNDS pp pp pp
0.0000000000000000e+00 1.0000000000000000e+02
0.0000000000000000e+00 1.0000000000000000e+02
0.0000000000000000e+00 1.0000000000000000e+02
ITEM: ATOMS id mol type x y z 
1 1 1 92.3109 5.52661 94.1978 
2 1 1 91.9952 6.18926 94.9686 
3 1 1 91.1796 6.19752 95.5701 
4 1 1 91.947 5.96138 96.0696 
5 1 1 92.307 6.01327 97.0225 
6 1 1 92.7885 5.4323 97.5792 
7 1 1 93.7069 5.01514 97.645 
8 1 1 94.553 4.89997 97.0433 
9 1 1 94.5884 4.67258 96.0898 
10 1 1 94.5283 3.79172 95.6561 
11 1 1 94.0083 3.22558 95.167 
12 1 1 93.14 2.91574 94.8652 
13 1 1 92.8164 2.30695 95.5397 
14 1 1 93.6068 2.01761 95.94 
15 1 1 92.8771 2.23521 96.5469 
16 1 1 93.7855 2.47378 96.8637 
17 1 1 93.7869 2.04228 97.7007 
18 1 1 94.288 2.5454 98.2206 
19 1 1 93.7239 3.35288 98.1469 
20 1 1 92.9259 3.02396 98.7061 
21 1 1 92.8301 2.16536 99.2485 
22 1 1 92.8501 1.69555 0.253533 
23 1 1 93.2544 1.22382 1.03361 
24 1 1 93.8878 0.561546 0.76182 
25 1 1 93.4731 0.29068 1.58917 
26 1 1 93.0648 0.195272 2.4661 
27 1 1 92.585 0.929296 2.80002 
28 1 1 92.2124 0.156127 3.26532 
29 1 1 92.0105 99.7295 4.13599 
30 1 1 91.8575 99.1778 3.41309 
31 1 1 91.0474 99.6745 3.22693 
32 1 1 91.0956 99.245 4.11529 
33 1 1 90.9211 99.0923 5.10578 
34 1 1 91.4421 98.1205 5.10697 
35 1 1 91.5835 97.2047 5.18727 
36 1 1 92.5645 97.1411 5.04466 
37 1 1 92.0957 96.3279 5.21528 
38 1 1 91.5679 95.4781 4.88515 
39 1 1 92.0634 96.0262 4.28822 
40 1 1 92.3073 95.3168 3.71598 
41 1 1 92.8978 94.6239 4.21927 
42 1 1 92.3789 94.9034 4.90971 
43 1 1 93.2167 95.4698 5.03855 
44 1 1 93.4683 96.144 5.68876 
45 1 1 94.2885 95.7756 5.33084 
46 1 1 95.1913 95.6681 5.85891 
47 1 1 95.925 96.2385 6.07946 
48 1 1 95.5841 96.9887 5.57536 
49 1 1 95.7202 97.7909 5.13445 
50 1 1 94.9394 98.2492 4.79308 
51 1 1 95.3846 98.8701 4.01972 
52 1 1 95.4501 99.8224 3.94096 
53 1 1 96.1682 99.9576 4.57536 
54 1 1 96.5243 0.840006 4.76006 
55 1 1 96.2017 1.6907 4.83114 
56 1 1 95.5637 2.29864 5.15748 
57 1 1 95.6709 3.16108 5.67755 
58 1 1 94.7574 2.7836 5.50202 
59 1 1 94.1278 3.45733 5.66652 
60 1 1 93.2205 3.42939 5.99581 
61 1 1 93.2441 4.23447 5.36742 
62 1 1 93.0942 5.19115 5.41619 
63 1 1 93.2564 6.11665 5.78749 
64 1 1 93.969 6.75721 5.59853 
65 1 1 93.5126 7.51012 5.14712 
66 1 1 93.0961 7.55552 4.26605 
67 1 1 93.3452 8.02119 3.33764 
68 1 1 93.2809 7.05746 3.27809 
69 1 1 93.2854 7.06697 2.26953 
70 1 1 92.9651 8.08074 2.41401 
71 1 1 92.5763 8.65895 1.76494 
72 1 1 91.8433 8.16234 2.23813 
73 1 1 90.9745 8.17172 1.82006 
74 1 1 91.2035 8.42 0.863888 
75 1 1 91.4233 9.2346 1.41265 
76 1 1 90.6887 10.0331 1.42363 
77 1 1 89.91 10.2445 2.04417 
78 1 1 89.2607 10.9354 2.35872 
79 1 1 88.9012 10.162 2.82867 
80 1 1 88.9512 9.22279 2.74406 
81 1 1 88.5681 9.04192 1.87537 
82 1 1 88.1184 9.45706 1.20088 
83 1 1 88.0447 9.98669 1.98286 
84 1 1 87.6451 10.3285 2.81969 
85 1 1 86.9266 10.8429 3.24234 
86 1 1 87.0327 11.8416 3.09708 
87 1 1 88.0511 11.6539 3.10357 
88 1 1 88.6846 12.1885 2.46946 
89 1 1 89.1195 12.872 1.91676 
90 1 1 89.7231 13.5827 1.63355 
91 1 1 89.1611 13.8492 0.8583 
92 1 1 89.9655 14.3578 0.58894 
93 1 1 89.7412 14.9548 99.7973 
94 1 1 89.0089 14.562 99.3845 
95 1 1 88.2141 15.1897 99.7799 
96 1 1 87.9117 14.5477 0.45743 
97 1 1 87.4125 14.0743 1.10723 
98 1 1 88.076 13.9904 1.74926 
99 1 1 88.2091 13.4725 2.57797 
100 1 1 88.7596 14.2372 2.99091 
ITEM: TIMESTEP
40000
ITEM: NUMBER OF ATOMS
100
ITEM: BOX BOUNDS pp pp pp
0.0000000000000000e+00 1.0000000000000000e+02
0.0000000000000000e+00 1.0000000000000000e+02
0.0000000000000000e+00 1.0000000000000000e+02
ITEM: ATOMS id mol type x y z 
1 1 1 93.6711 0.141825 1.98969 
2 1 1 93.9488 0.487554 1.1766 
3 1 1 94.043 1.48613 1.2343 
4 1 1 93.8024 2.38499 1.0739 
5 1 1 94.346 2.94259 0.393874 
6 1 1 93.9698 2.37454 99.7271 
7 1 1 94.3077 1.4457 99.8886 
8 1 1 93.4336 1.62653 0.274795 
9 1 1 92.5772 1.68381 0.455719 
10 1 1 91.6179 1.57564 0.511832 
11 1 1 91.3318 1.63339 1.38717 
12 1 1 91.0889 2.49882 1.39712 
13 1 1 91.3643 2.28203 2.33435 
14 1 1 91.5823 2.42731 3.29845 
15 1 1 91.9138 2.05373 4.23201 
16 1 1 91.4954 2.96211 4.62779 
17 1 1 91.2976 3.8343 5.01923 
18 1 1 92.2152 3.83657 4.76525 
19 1 1 92.161 3.92413 5.79054 
20 1 1 91.7801 3.60165 6.67082 
21 1 1 92.4535 4.08335 7.05637 
22 1 1 93.4237 3.95122 7.2136 
23 1 1 94.3117 4.14875 6.83299 
24 1 1 93.8209 3.44053 6.41789 
25 1 1 93.734 2.99602 7.30109 
26 1 1 93.4078 2.21573 7.80279 
27 1 1 92.5684 1.75378 7.80151 
28 1 1 93.3616 1.21828 7.59357 
29 1 1 93.7509 0.860045 8.46904 
30 1 1 93.533 99.966 8.60806 
31 1 1 93.9358 99.9188 7.73669 
32 1 1 93.3757 99.2941 7.199 
33 1 1 92.9258 0.158738 7.07973 
34 1 1 92.1494 0.187408 6.48978 
35 1 1 91.4182 99.4483 6.60633 
36 1 1 90.7967 99.1004 5.89243 
37 1 1 91.6589 99.0227 5.54294 
38 1 1 91.7282 98.1922 5.02478 
39 1 1 92.4148 97.7067 4.60105 
40 1 1 92.331 98.3816 3.94198 
41 1 1 92.9408 98.6118 3.05642 
42 1 1 92.5424 97.6876 2.86222 
43 1 1 93.226 96.9851 3.03342 
44 1 1 93.9959 96.8519 3.45911 
45 1 1 94.835 96.8657 2.90433 
46 1 1 95.2316 97.7386 2.94567 
47 1 1 95.4717 98.6088 3.13536 
48 1 1 95.0276 99.4503 2.90739 
49 1 1 95.1978 0.309677 3.286 
50 1 1 95.1521 0.597417 2.37942 
51 1 1 94.7232 1.36021 2.77533 
52 1 1 94.6212 2.3148 2.61559 
53 1 1 94.6627 3.26358 2.82785 
54 1 1 94.0214 3.47577 3.4605 
55 1 1 93.2998 3.84621 3.0128 
56 1 1 92.336 3.73688 3.04028 
57 1 1 92.3013 4.339 2.34288 
58 1 1 92.7764 5.23139 2.20551 
59 1 1 93.1756 5.54915 3.13304 
60 1 1 93.0306 6.38696 2.71526 
61 1 1 92.1298 6.43667 2.43439 
62 1 1 91.1825 6.16277 2.51029 
63 1 1 90.5066 6.6737 1.94817 
64 1 1 91.3127 6.91621 1.46376 
65 1 1 91.7219 6.81743 0.56607 
66 1 1 92.058 7.61791 0.121889 
67 1 1 92.1216 7.95717 99.2001 
68 1 1 92.2113 8.46793 98.3892 
69 1 1 92.1112 9.03927 97.7228 
70 1 1 91.8731 10.0373 97.7344 
71 1 1 91.2561 10.0742 98.4725 
72 1 1 90.8908 10.8597 98.5999 
73 1 1 90.3181 11.6763 98.7133 
74 1 1 89.8157 11.1895 98.0545 
75 1 1 89.6632 10.4902 97.3666 
76 1 1 89.4187 11.4503 97.0249 
77 1 1 88.5391 11.5732 97.4269 
78 1 1 88.2831 12.3047 98.1077 
79 1 1 89.1146 12.8789 98.486 
80 1 1 88.5457 13.4704 98.9963 
81 1 1 88.6427 14.3836 99.3449 
82 1 1 88.0972 15.0857 99.1893 
83 1 1 88.1273 15.6227 0.00982576 
84 1 1 88.279 16.5893 0.208652 
85 1 1 87.4886 17.2128 0.365028 
86 1 1 87.3992 16.915 99.3683 
87 1 1 86.6218 17.4972 99.6551 
88 1 1 86.0586 18.3405 99.9608 
89 1 1 86.3651 17.926 0.775723 
90 1 1 86.2152 16.9566 1.16648 
91 1 1 86.564 16.7708 2.02122 
92 1 1 87.0766 16.0737 1.68112 
93 1 1 86.2029 15.67 1.82854 
94 1 1 86.1288 15.4266 0.817147 
95 1 1 85.1605 15.0863 0.617661 
96 1 1 84.6537 14.4063 1.09468 
97 1 1 84.0879 14.7626 1.69637 
98 1 1 83.23 14.4342 1.53095 
99 1 1 83.0762 13.6072 1.09299 
100 1 1 84.0109 13.6601 0.654542 
ITEM: TIMESTEP
50000
ITEM: NUMBER OF ATOMS
100
ITEM: BOX BOUNDS pp pp pp
0.0000000000000000e+00 1.0000000000000000e+02
0.0000000000000000e+00 1.0000000000000000e+02
0.0000000000000000e+00 1.0000000000000000e+02
ITEM: ATOMS id mol type x y z 
1 1 1 94.9307 93.5959 98.8241 
2 1 1 94.0921 94.178 98.675 
3 1 1 93.2895 94.6074 98.3 
4 1 1 93.9693 95.0462 97.8136 
5 1 1 93.7747 95.9779 97.78 
6 1 1 93.9487 96.8309 97.4062 
7 1 1 93.3504 97.6122 97.6343 
8 1 1 93.4657 97.1133 98.4934 
9 1 1 93.1149 97.6139 99.3327 
10 1 1 93.2694 98.4596 99.8181 
11 1 1 92.4698 98.5588 99.3939 
12 1 1 92.4749 99.5463 99.4941 
13 1 1 91.7288 99.8413 0.184743 
14 1 1 92.4038 99.8389 0.82717 
15 1 1 92.2844 0.387733 1.56284 
16 1 1 91.4806 0.752963 1.99375 
17 1 1 91.1662 0.958546 2.90843 
18 1 1 90.1567 0.78971 3.00631 
19 1 1 90.442 99.9925 3.49976 
20 1 1 90.7142 99.1102 3.77019 
21 1 1 91.2556 99.3335 3.12234 
22 1 1 90.9761 98.5607 2.66452 
23 1 1 90.9878 97.6762 3.04504 
24 1 1 91.4972 98.154 3.68202 
25 1 1 92.3801 98.0375 4.21251 
26 1 1 93.0197 97.4731 4.7161 
27 1 1 93.8861 97.1978 4.90253 
28 1 1 94.4156 96.6951 5.55664 
29 1 1 95.2663 97.129 5.70532 
30 1 1 95.2984 97.9035 6.20221 
31 1 1 95.1292 98.6347 6.82743 
32 1 1 94.3757 98.4986 7.29894 
33 1 1 93.9657 99.0765 7.94679 
34 1 1 93.2637 98.9099 7.24989 
35 1 1 93.5025 98.2132 6.60671 
36 1 1 92.9381 98.8211 6.00898 
37 1 1 92.0365 99.1632 6.30295 
38 1 1 92.5861 99.956 5.96072 
39 1 1 93.4761 99.7464 6.06605 
40 1 1 93.2702 0.375783 6.72626 
41 1 1 94.0933 99.9714 6.82461 
42 1 1 94.4517 0.647577 6.31171 
43 1 1 93.8301 1.38771 6.72128 
44 1 1 94.0816 1.48418 5.74695 
45 1 1 93.1743 1.83462 5.40774 
46 1 1 92.5945 1.60602 4.70406 
47 1 1 91.8096 1.02066 4.76344 
48 1 1 91.8759 1.7435 5.39961 
49 1 1 92.0067 2.89675 5.39533 
50 1 1 92.1885 2.65006 6.48282 
51 1 1 91.7295 3.25326 7.00828 
52 1 1 92.1377 3.54934 6.15868 
53 1 1 91.8179 3.91146 5.32487 
54 1 1 92.2877 3.53575 4.58052 
55 1 1 91.9078 4.25955 4.20636 
56 1 1 91.68 3.78196 3.48355 
57 1 1 91.4839 3.85329 2.55617 
58 1 1 90.758 3.28903 2.30596 
59 1 1 90.0036 3.69896 2.73537 
60 1 1 89.3567 4.22038 2.18085 
61 1 1 89.9181 3.85773 1.52941 
62 1 1 90.564 4.47243 1.23348 
63 1 1 91.5647 4.42823 0.935792 
64 1 1 92.0917 3.63855 0.861692 
65 1 1 91.5274 3.67705 99.9741 
66 1 1 91.0129 4.24214 99.5007 
67 1 1 90.6742 5.04547 0.113595 
68 1 1 89.9038 4.9471 99.5146 
69 1 1 89.65 5.96838 99.2531 
70 1 1 88.9598 5.5986 99.8744 
71 1 1 88.7601 5.34285 98.9755 
72 1 1 88.916 6.31576 98.4953 
73 1 1 89.5794 6.15976 97.815 
74 1 1 88.8973 6.84168 97.4544 
75 1 1 89.0678 7.79449 97.5518 
76 1 1 88.38 8.32819 97.1896 
77 1 1 88.6523 9.0793 97.7736 
78 1 1 87.681 9.35028 97.9336 
79 1 1 88.1483 10.1937 97.9124 
80 1 1 88.2173 11.0522 97.5833 
81 1 1 89.1544 11.1653 97.7242 
82 1 1 89.4337 12.1527 97.7074 
83 1 1 89.5035 11.9717 98.7094 
84 1 1 89.035 12.5268 99.3529 
85 1 1 89.4368 13.217 99.9333 
86 1 1 89.3075 14.1235 0.196552 
87 1 1 89.3303 13.9695 1.19684 
88 1 1 90.0241 14.4151 1.76029 
89 1 1 89.8836 14.0222 2.62218 
90 1 1 89.3136 14.7719 2.53044 
91 1 1 89.0275 15.5965 3.03997 
92 1 1 88.2832 15.1686 2.47601 
93 1 1 87.6543 15.8078 2.8772 
94 1 1 87.2887 15.424 3.67225 
95 1 1 86.9618 14.8011 3.00679 
96 1 1 87.172 14.1074 3.62457 
97 1 1 86.6387 13.6282 2.98958 
98 1 1 87.1159 12.7855 2.84982 
99 1 1 87.4005 12.5949 3.84845 
100 1 1 87.3995 12.858 4.83087 
ITEM: TIMESTEP
60000
ITEM: NUMBER OF ATOMS
100
ITEM: BOX BOUNDS pp pp pp
0.0000000000000000e+00 1.0000000000000000e+02
0.0000000000000000e+00 1.0000000000000000e+02
0.0000000000000000e+00 1.0000000000000000e+02
ITEM: ATOMS id mol type x y z 
1 1 1 98.2567 99.6179 98.9631 
2 1 1 98.5714 99.5102 99.8717 
3 1 1 98.3845 98.6541 99.5615 
4 1 1 99.2929 98.8696 99.3201 
5 1 1 99.6071 97.8699 98.9176 
6 1 1 98.703 97.8714 98.7384 
7 1 1 99.2935 96.9792 98.667 
8 1 1 98.7083 97.0303 99.4891 
9 1 1 99.0541 96.4873 0.284894 
10 1 1 99.5904 96.3712 0.955806 
11 1 1 99.4893 97.0539 1.58278 
12 1 1 99.5259 96.9728 2.58949 
13 1 1 99.2108 96.3248 3.22471 
14 1 1 99.4562 95.7419 4.05715 
15 1 1 99.6377 95.3476 5.01194 
16 1 1 99.7484 94.3792 5.25802 
17 1 1 99.6148 94.4202 6.16991 
18 1 1 99.3784 95.3311 6.25556 
19 1 1 98.8524 96.3101 6.25429 
20 1 1 98.0299 96.7787 6.4077 
21 1 1 97.1346 96.4406 6.30121 
22 1 1 96.3443 97.1172 6.54372 
23 1 1 95.8987 97.9263 5.98248 
24 1 1 95.0164 97.9329 5.60851 
25 1 1 95.3216 98.8648 5.51266 
26 1 1 95.6553 99.1214 6.44235 
27 1 1 96.4103 99.6873 6.68846 
28 1 1 96.9791 0.24698 7.24183 
29 1 1 96.3536 0.749711 7.89573 
30 1 1 95.5973 0.429115 8.42476 
31 1 1 94.7117 0.450295 8.0186 
32 1 1 94.5651 0.137526 8.95553 
33 1 1 95.2217 0.668031 9.36166 
34 1 1 94.6317 0.782371 10.1724 
35 1 1 93.7116 0.510682 9.98521 
36 1 1 92.9546 0.644962 10.6752 
37 1 1 92.087 0.150814 10.5612 
38 1 1 91.9352 0.908558 10.0249 
39 1 1 91.8207 1.79899 10.2866 
40 1 1 92.1946 2.39781 9.75363 
41 1 1 92.9005 3.0982 9.64972 
42 1 1 93.2903 3.97283 9.91992 
43 1 1 93.596 4.20464 9.05498 
44 1 1 93.6025 4.22432 8.09956 
45 1 1 93.0521 4.26287 7.24074 
46 1 1 92.4353 4.98899 7.37062 
47 1 1 92.6109 4.98397 6.46772 
48 1 1 92.5078 5.76284 5.8023 
49 1 1 92.0835 6.47104 5.245 
50 1 1 92.6764 7.21885 5.22715 
51 1 1 93.2341 6.66629 5.85383 
52 1 1 94.1226 6.30656 5.99336 
53 1 1 94.5832 5.97883 5.23722 
54 1 1 94.7433 6.86468 4.73315 
55 1 1 93.8044 6.61354 4.53028 
56 1 1 93.0868 6.8562 3.94211 
57 1 1 92.2942 6.35769 3.66256 
58 1 1 91.6266 7.00348 3.48568 
59 1 1 90.7741 7.66782 3.55719 
60 1 1 91.0213 8.33437 2.90598 
61 1 1 91.147 8.81557 2.05462 
62 1 1 91.8559 9.18469 2.62661 
63 1 1 91.2007 9.77308 2.52274 
64 1 1 91.315 9.65159 1.53923 
65 1 1 91.2455 10.6012 1.83468 
66 1 1 91.4685 11.5087 1.50205 
67 1 1 90.8593 11.6852 0.635716 
68 1 1 91.6278 10.9756 0.726211 
69 1 1 91.0827 10.9133 99.9623 
70 1 1 91.0749 10.3699 99.101 
71 1 1 92.0632 10.2591 98.9461 
72 1 1 91.9119 10.7818 98.1191 
73 1 1 92.841 10.7651 98.5516 
74 1 1 93.8429 10.8459 98.5664 
75 1 1 94.2612 10.225 97.815 
76 1 1 95.115 10.6228 98.0937 
77 1 1 95.6057 11.4236 98.5195 
78 1 1 95.6623 11.8235 99.3963 
79 1 1 94.7923 11.2124 99.3849 
80 1 1 94.433 10.4315 99.8619 
81 1 1 93.5596 10.0978 99.9834 
82 1 1 93.69 10.7764 0.6393 
83 1 1 93.3598 11.578 0.348064 
84 1 1 93.1135 11.5203 99.3662 
85 1 1 93.5418 12.0803 98.6864 
86 1 1 92.7773 12.5104 99.1937 
87 1 1 92.5107 13.4124 99.2101 
88 1 1 92.1947 13.2592 0.0519606 
89 1 1 92.3511 12.887 0.943362 
90 1 1 93.076 12.5915 1.4468 
91 1 1 92.3478 12.5998 2.11367 
92 1 1 91.987 13.0629 3.03506 
93 1 1 92.506 13.1337 3.85922 
94 1 1 93.2853 13.6943 3.6279 
95 1 1 93.2769 14.5795 3.42207 
96 1 1 92.4521 14.2073 3.0661 
97 1 1 91.5607 14.4536 3.30803 
98 1 1 92.1827 15.2466 3.03242 
99 1 1 91.3729 15.7971 2.93873 
100 1 1 91.0478 16.401 2.30522 
ITEM: TIMESTEP
70000
ITEM: NUMBER OF ATOMS
100
ITEM: BOX BOUNDS pp pp pp
0.0000000000000000e+00 1.0000000000000000e+02
0.0000000000000000e+00 1.0000000000000000e+02
0.0000000000000000e+00 1.0000000000000000e+02
ITEM: ATOMS id mol type x y z 
1 1 1 96.0016 94.1415 5.29564 
2 1 1 96.5468 93.4036 5.69444 
3 1 1 96.7871 94.2009 6.21349 
4 1 1 96.489 93.3431 6.69886 
5 1 1 95.615 92.9598 6.90958 
6 1 1 94.9124 92.4729 7.35892 
7 1 1 94.0287 92.3931 7.00406 
8 1 1 93.3344 93.0579 6.75178 
9 1 1 93.0157 93.3381 5.93709 
10 1 1 93.6096 93.7276 5.27131 
11 1 1 93.7008 94.6699 5.59931 
12 1 1 94.0255 95.0424 6.44239 
13 1 1 94.895 94.9771 6.00978 
14 1 1 95.8593 95.0738 5.89743 
15 1 1 96.1229 96.02 6.1494 
16 1 1 96.5391 96.8827 6.1717 
17 1 1 97.3877 96.7931 5.48601 
18 1 1 98.2133 97.2523 5.36359 
19 1 1 97.905 97.7429 4.57461 
20 1 1 97.7717 98.034 3.5906 
21 1 1 96.955 98.2986 3.16845 
22 1 1 96.0746 98.1277 2.87273 
23 1 1 95.2986 97.7379 3.59722 
24 1 1 94.8287 97.4334 2.83064 
25 1 1 94.3483 97.7652 3.68691 
26 1 1 94.1488 98.6763 3.95134 
27 1 1 94.7373 98.7261 4.66777 
28 1 1 93.9595 99.3446 4.72141 
29 1 1 93.7964 0.0825808 4.11602 
30 1 1 94.6672 0.464722 4.21614 
31 1 1 94.1718 1.2167 4.30593 
32 1 1 94.1028 2.12713 4.63517 
33 1 1 94.8543 2.67673 4.99742 
34 1 1 95.6229 2.67854 4.28445 
35 1 1 96.3968 3.25676 4.05674 
36 1 1 97.0639 2.58277 3.90233 
37 1 1 97.1184 1.59302 4.30886 
38 1 1 97.8465 1.46134 3.6839 
39 1 1 98.7722 1.16094 3.60429 
40 1 1 98.1299 0.449509 3.69052 
41 1 1 98.2076 0.318542 4.69324 
42 1 1 98.3725 0.0016339 5.63718 
43 1 1 98.8372 0.778634 5.34708 
44 1 1 98.2439 0.976868 6.20649 
45 1 1 98.2311 1.90812 5.90754 
46 1 1 98.5843 2.50031 6.54543 
47 1 1 98.1981 2.97055 7.32175 
48 1 1 98.1876 3.43985 6.49593 
49 1 1 98.9912 3.82221 6.13509 
50 1 1 98.6358 4.4064 5.4529 
51 1 1 99.0213 5.11073 4.94033 
52 1 1 99.2993 6.03867 4.43726 
53 1 1 99.824 6.22906 3.61447 
54 1 1 98.9998 6.77368 3.33599 
55 1 1 99.5518 7.52674 3.56124 
56 1 1 99.6758 8.12151 4.33776 
57 1 1 99.1013 8.84182 4.06122 
58 1 1 98.2464 9.09225 4.33415 
59 1 1 98.2524 10.0568 4.15131 
60 1 1 98.5933 10.7045 3.57091 
61 1 1 97.9736 10.7945 2.68026 
62 1 1 97.2947 10.6936 1.92212 
63 1 1 96.4367 10.5788 1.85938 
64 1 1 96.3342 11.4427 1.45261 
65 1 1 95.4844 11.3395 1.07586 
66 1 1 94.7474 10.6407 1.21538 
67 1 1 94.0834 11.2733 1.41517 
68 1 1 93.3408 10.8928 0.913736 
69 1 1 92.9249 11.1684 1.77563 
70 1 1 92.3324 12.0007 2.08603 
71 1 1 91.834 11.0828 1.87883 
72 1 1 91.0487 10.8212 2.51948 
73 1 1 90.7588 9.9599 2.47413 
74 1 1 90.1835 10.1607 3.28376 
75 1 1 89.3574 9.90392 3.8603 
76 1 1 88.8826 10.4777 4.47243 
77 1 1 88.2404 10.3544 3.74305 
78 1 1 87.8704 11.2089 3.56618 
79 1 1 87.8921 11.739 4.43152 
80 1 1 88.8271 11.9507 4.50585 
81 1 1 88.3796 12.6056 4.09941 
82 1 1 88.7475 13.0081 3.23764 
83 1 1 87.9813 13.6079 2.99621 
84 1 1 87.934 14.3489 2.39053 
85 1 1 88.1321 15.2 1.7629 
86 1 1 87.8715 15.6842 2.5785 
87 1 1 88.6701 16.3358 2.725 
88 1 1 88.1818 16.0101 3.50646 
89 1 1 88.1048 16.9642 3.29243 
90 1 1 87.6201 17.8915 3.67934 
91 1 1 88.0781 18.2446 4.40704 
92 1 1 88.0698 19.172 4.63662 
93 1 1 88.9167 19.2774 5.06813 
94 1 1 89.0251 20.1932 5.35814 
95 1 1 89.2891 19.7162 6.19766 
96 1 1 89.8993 19.0779 5.92267 
97 1 1 89.5964 18.3425 5.3751 
98 1 1 89.7939 17.5702 4.89812 
99 1 1 89.6281 17.4889 3.96847 
100 1 1 90.5175 17.2117 3.83534 
ITEM: TIMESTEP
80000
ITEM: NUMBER OF ATOMS
100
ITEM: BOX BOUNDS pp pp pp
0.0000000000000000e+00 1.0000000000000000e+02
0.0000000000000000e+00 1.0000000000000000e+02
0.0000000000000000e+00 1.0000000000000000e+02
ITEM: ATOMS id mol type x y z 
1 1 1 1.58025 99.3587 9.25577 
2 1 1 2.22521 98.6358 9.52086 
3 1 1 2.79083 98.4578 8.78374 
4 1 1 2.37556 97.8703 8.20817 
5 1 1 1.63285 98.5559 7.89502 
6 1 1 1.51941 99.4895 7.84083 
7 1 1 1.53547 0.445869 7.82363 
8 1 1 0.807215 0.476073 7.19352 
9 1 1 0.175799 99.6588 7.20208 
10 1 1 0.503749 98.891 7.63346 
11 1 1 0.768408 98.1414 6.94826 
12 1 1 0.708627 97.2202 6.81229 
13 1 1 0.398879 96.9451 5.92331 
14 1 1 1.09987 97.3549 5.32933 
15 1 1 1.37841 97.344 4.3365 
16 1 1 0.533696 96.9587 4.33184 
17 1 1 99.7429 97.0129 3.58337 
18 1 1 98.8625 97.3768 3.65348 
19 1 1 98.1392 96.715 3.49881 
20 1 1 98.1989 95.9164 2.91461 
21 1 1 97.7923 96.643 2.45903 
22 1 1 97.4706 97.4436 2.05428 
23 1 1 98.4747 97.5795 2.12913 
24 1 1 98.8477 98.4596 2.17765 
25 1 1 99.4403 97.7145 2.49602 
26 1 1 0.0554803 98.3655 2.86943 
27 1 1 99.7996 99.2666 2.90273 
28 1 1 0.463578 99.7728 2.34585 
29 1 1 0.322456 0.439764 2.9948 
30 1 1 0.992351 0.748618 3.59108 
31 1 1 0.449133 0.315849 4.16877 
32 1 1 99.7378 99.6944 3.88204 
33 1 1 99.0703 99.7993 4.58797 
34 1 1 99.4927 99.1844 5.35248 
35 1 1 99.2193 0.000241177 5.64401 
36 1 1 0.0284264 0.502669 5.8818 
37 1 1 99.7866 1.42588 5.92347 
38 1 1 99.5507 1.82827 5.10586 
39 1 1 98.5304 2.12739 4.94464 
40 1 1 98.5619 2.42303 4.03096 
41 1 1 97.9461 2.91817 4.68648 
42 1 1 98.227 3.49634 3.7823 
43 1 1 98.4208 4.21111 3.16879 
44 1 1 98.6513 4.88355 2.54946 
45 1 1 99.2337 5.50021 1.93836 
46 1 1 98.6985 6.23953 1.85573 
47 1 1 98.6959 6.45029 0.875983 
48 1 1 98.0279 5.86742 0.673632 
49 1 1 97.1437 5.71461 0.982939 
50 1 1 96.9684 5.23523 1.79254 
51 1 1 96.8842 6.00605 2.31097 
52 1 1 96.1125 5.92111 2.8988 
53 1 1 95.2797 5.92519 2.38996 
54 1 1 95.8203 5.10353 2.39248 
55 1 1 96.7364 4.97096 2.91435 
56 1 1 97.2065 4.60662 3.65953 
57 1 1 97.0327 4.4923 4.58155 
58 1 1 97.259 5.32258 5.1419 
59 1 1 96.3819 5.33305 4.84432 
60 1 1 96.0849 6.20907 5.11566 
61 1 1 95.2782 6.72309 4.82005 
62 1 1 95.3802 7.28829 4.02151 
63 1 1 95.4068 8.20912 4.27917 
64 1 1 95.8038 8.51048 5.07556 
65 1 1 95.362 9.15996 5.66088 
66 1 1 94.6477 8.4594 5.75769 
67 1 1 93.6349 8.71782 5.65964 
68 1 1 93.3303 9.61921 5.80536 
69 1 1 92.7092 10.231 5.49487 
70 1 1 92.1189 9.47977 5.09206 
71 1 1 91.4227 9.3484 4.41265 
72 1 1 91.0704 8.69588 3.78602 
73 1 1 90.1373 8.93408 4.07387 
74 1 1 89.296 8.58807 4.2371 
75 1 1 88.5481 8.02822 4.5772 
76 1 1 88.3009 8.90472 4.49664 