LAMMPS data file via write_data, version 31 Mar 2017, timestep = 5000000

2101 atoms
5 atom types
1740 bonds
1 bond types

-7.8750000000000000e+00 7.8750000000000000e+00 xlo xhi
-9.0932499999999994e+00 9.0932499999999994e+00 ylo yhi
-3.0000000000000000e+00 4.0000000000000000e+01 zlo zhi

Masses

1 1
2 1
3 1
4 1
5 1

Pair Coeffs # lj/expand

1 1 1 0
2 1 1 0
3 1 1 0
4 0 0 0
5 1 1 3

Bond Coeffs # fene

1 30 1.5 1 1

Atoms # bond

1801 61 4 -7.8750000000000000e+00 -9.0932499999999994e+00 0.0000000000000000e+00 0 0 0
1802 62 4 -7.8750000000000000e+00 -7.2746000000000004e+00 0.0000000000000000e+00 0 0 0
1811 71 4 -7.3499999999999996e+00 -8.1839300000000001e+00 0.0000000000000000e+00 0 0 0
1821 81 4 -6.8250000000000002e+00 -9.0932499999999994e+00 0.0000000000000000e+00 0 0 0
1822 82 4 -6.8250000000000002e+00 -7.2746000000000004e+00 0.0000000000000000e+00 0 0 0
1831 91 4 -6.2999999999999998e+00 -8.1839300000000001e+00 0.0000000000000000e+00 0 0 0
1841 101 4 -5.7750000000000004e+00 -9.0932499999999994e+00 0.0000000000000000e+00 0 0 0
1842 102 4 -5.7750000000000004e+00 -7.2746000000000004e+00 0.0000000000000000e+00 0 0 0
3 1 2 -7.1957508209368140e+00 -7.8280908722086417e+00 1.0009175297569883e+00 0 0 0
333 12 2 -5.5197281159865907e+00 -7.0693579670274032e+00 1.2900326086081271e+00 0 0 0
1851 111 4 -5.2500000000000000e+00 -8.1839300000000001e+00 0.0000000000000000e+00 0 0 0
1861 121 4 -4.7249999999999996e+00 -9.0932499999999994e+00 0.0000000000000000e+00 0 0 0
1862 122 4 -4.7249999999999996e+00 -7.2746000000000004e+00 0.0000000000000000e+00 0 0 0
1871 131 4 -4.2000000000000002e+00 -8.1839300000000001e+00 0.0000000000000000e+00 0 0 0
1881 141 4 -3.6749999999999998e+00 -9.0932499999999994e+00 0.0000000000000000e+00 0 0 0
1882 142 4 -3.6749999999999998e+00 -7.2746000000000004e+00 0.0000000000000000e+00 0 0 0
1891 151 4 -3.1499999999999999e+00 -8.1839300000000001e+00 0.0000000000000000e+00 0 0 0
1901 161 4 -2.6250000000000000e+00 -9.0932499999999994e+00 0.0000000000000000e+00 0 0 0
1902 162 4 -2.6250000000000000e+00 -7.2746000000000004e+00 0.0000000000000000e+00 0 0 0
1911 171 4 -2.1000000000000001e+00 -8.1839300000000001e+00 0.0000000000000000e+00 0 0 0
1921 181 4 -1.5750000000000000e+00 -9.0932499999999994e+00 0.0000000000000000e+00 0 0 0
1922 182 4 -1.5750000000000000e+00 -7.2746000000000004e+00 0.0000000000000000e+00 0 0 0
1931 191 4 -1.0500000000000000e+00 -8.1839300000000001e+00 0.0000000000000000e+00 0 0 0
1942 202 4 -5.2500000000000002e-01 -7.2746000000000004e+00 0.0000000000000000e+00 0 0 0
1941 201 4 -5.2500000000000002e-01 -9.0932499999999994e+00 0.0000000000000000e+00 0 0 0
2 1 2 -6.8388068585917248e+00 -6.8337223532442213e+00 9.9351114485928194e-01 0 0 0
1812 72 4 -7.3499999999999996e+00 -6.3652800000000003e+00 0.0000000000000000e+00 0 0 0
1832 92 4 -6.2999999999999998e+00 -6.3652800000000003e+00 0.0000000000000000e+00 0 0 0
1803 63 4 -7.8750000000000000e+00 -5.4559499999999996e+00 0.0000000000000000e+00 0 0 0
1823 83 4 -6.8250000000000002e+00 -5.4559499999999996e+00 0.0000000000000000e+00 0 0 0
1843 103 4 -5.7750000000000004e+00 -5.4559499999999996e+00 0.0000000000000000e+00 0 0 0
332 12 2 -5.6929431777665744e+00 -6.1440346295342243e+00 1.2609439085310512e+00 0 0 0
1852 112 4 -5.2500000000000000e+00 -6.3652800000000003e+00 0.0000000000000000e+00 0 0 0
1872 132 4 -4.2000000000000002e+00 -6.3652800000000003e+00 0.0000000000000000e+00 0 0 0
1892 152 4 -3.1499999999999999e+00 -6.3652800000000003e+00 0.0000000000000000e+00 0 0 0
1863 123 4 -4.7249999999999996e+00 -5.4559499999999996e+00 0.0000000000000000e+00 0 0 0
1883 143 4 -3.6749999999999998e+00 -5.4559499999999996e+00 0.0000000000000000e+00 0 0 0
1903 163 4 -2.6250000000000000e+00 -5.4559499999999996e+00 0.0000000000000000e+00 0 0 0
1912 172 4 -2.1000000000000001e+00 -6.3652800000000003e+00 0.0000000000000000e+00 0 0 0
1932 192 4 -1.0500000000000000e+00 -6.3652800000000003e+00 0.0000000000000000e+00 0 0 0
1923 183 4 -1.5750000000000000e+00 -5.4559499999999996e+00 0.0000000000000000e+00 0 0 0
1943 203 4 -5.2500000000000002e-01 -5.4559499999999996e+00 0.0000000000000000e+00 0 0 0
393 14 2 -1.5229510700552316e+00 -5.5683215743295422e+00 1.5050676406733547e+00 0 0 0
1813 73 4 -7.3499999999999996e+00 -4.5466300000000004e+00 0.0000000000000000e+00 0 0 0
1833 93 4 -6.2999999999999998e+00 -4.5466300000000004e+00 0.0000000000000000e+00 0 0 0
1804 64 4 -7.8750000000000000e+00 -3.6373000000000002e+00 0.0000000000000000e+00 0 0 0
1824 84 4 -6.8250000000000002e+00 -3.6373000000000002e+00 0.0000000000000000e+00 0 0 0
1844 104 4 -5.7750000000000004e+00 -3.6373000000000002e+00 0.0000000000000000e+00 0 0 0
1814 74 4 -7.3499999999999996e+00 -2.7279800000000001e+00 0.0000000000000000e+00 0 0 0
1834 94 4 -6.2999999999999998e+00 -2.7279800000000001e+00 0.0000000000000000e+00 0 0 0
367 13 2 -6.7195517128495537e+00 -3.2123643333368803e+00 1.0384966087008325e+00 0 0 0
1853 113 4 -5.2500000000000000e+00 -4.5466300000000004e+00 0.0000000000000000e+00 0 0 0
1873 133 4 -4.2000000000000002e+00 -4.5466300000000004e+00 0.0000000000000000e+00 0 0 0
1893 153 4 -3.1499999999999999e+00 -4.5466300000000004e+00 0.0000000000000000e+00 0 0 0
1854 114 4 -5.2500000000000000e+00 -2.7279800000000001e+00 0.0000000000000000e+00 0 0 0
1864 124 4 -4.7249999999999996e+00 -3.6373000000000002e+00 0.0000000000000000e+00 0 0 0
1884 144 4 -3.6749999999999998e+00 -3.6373000000000002e+00 0.0000000000000000e+00 0 0 0
1874 134 4 -4.2000000000000002e+00 -2.7279800000000001e+00 0.0000000000000000e+00 0 0 0
1894 154 4 -3.1499999999999999e+00 -2.7279800000000001e+00 0.0000000000000000e+00 0 0 0
695 24 2 -3.0669308754227318e+00 -3.4854887685169627e+00 1.4683957228594593e+00 0 0 0
694 24 2 -2.0745706128725043e+00 -3.5884417756954750e+00 1.3040081169614828e+00 0 0 0
693 24 2 -1.5354265180549433e+00 -2.8232565921450123e+00 1.2045955567982511e+00 0 0 0
1913 173 4 -2.1000000000000001e+00 -4.5466300000000004e+00 0.0000000000000000e+00 0 0 0
1933 193 4 -1.0500000000000000e+00 -4.5466300000000004e+00 0.0000000000000000e+00 0 0 0
1904 164 4 -2.6250000000000000e+00 -3.6373000000000002e+00 0.0000000000000000e+00 0 0 0
1924 184 4 -1.5750000000000000e+00 -3.6373000000000002e+00 0.0000000000000000e+00 0 0 0
1914 174 4 -2.1000000000000001e+00 -2.7279800000000001e+00 0.0000000000000000e+00 0 0 0
1934 194 4 -1.0500000000000000e+00 -2.7279800000000001e+00 0.0000000000000000e+00 0 0 0
1944 204 4 -5.2500000000000002e-01 -3.6373000000000002e+00 0.0000000000000000e+00 0 0 0
1805 65 4 -7.8750000000000000e+00 -1.8186500000000001e+00 0.0000000000000000e+00 0 0 0
1815 75 4 -7.3499999999999996e+00 -9.0932999999999997e-01 0.0000000000000000e+00 0 0 0
1825 85 4 -6.8250000000000002e+00 -1.8186500000000001e+00 0.0000000000000000e+00 0 0 0
1835 95 4 -6.2999999999999998e+00 -9.0932999999999997e-01 0.0000000000000000e+00 0 0 0
1845 105 4 -5.7750000000000004e+00 -1.8186500000000001e+00 0.0000000000000000e+00 0 0 0
1855 115 4 -5.2500000000000000e+00 -9.0932999999999997e-01 0.0000000000000000e+00 0 0 0
1865 125 4 -4.7249999999999996e+00 -1.8186500000000001e+00 0.0000000000000000e+00 0 0 0
1875 135 4 -4.2000000000000002e+00 -9.0932999999999997e-01 0.0000000000000000e+00 0 0 0
1885 145 4 -3.6749999999999998e+00 -1.8186500000000001e+00 0.0000000000000000e+00 0 0 0
1895 155 4 -3.1499999999999999e+00 -9.0932999999999997e-01 0.0000000000000000e+00 0 0 0
692 24 2 -2.0491299221311801e+00 -2.0955961373443186e+00 9.9640777394920277e-01 0 0 0
1905 165 4 -2.6250000000000000e+00 -1.8186500000000001e+00 0.0000000000000000e+00 0 0 0
1915 175 4 -2.1000000000000001e+00 -9.0932999999999997e-01 0.0000000000000000e+00 0 0 0
1925 185 4 -1.5750000000000000e+00 -1.8186500000000001e+00 0.0000000000000000e+00 0 0 0
1935 195 4 -1.0500000000000000e+00 -9.0932999999999997e-01 0.0000000000000000e+00 0 0 0
1945 205 4 -5.2500000000000002e-01 -1.8186500000000001e+00 0.0000000000000000e+00 0 0 0
31 2 1 -5.9062500000000000e+00 -8.3354800000000004e+00 1.6875024916199077e+00 0 0 0
32 2 2 -5.6454418658744050e+00 -8.9030175108254905e+00 2.4853468260531941e+00 0 0 0
334 12 2 -6.0836276708913193e+00 -7.1922983182030409e+00 2.0619340241647524e+00 0 0 0
335 12 2 -6.3508746334988331e+00 -7.8670028809613672e+00 2.7318228567366161e+00 0 0 0
336 12 2 -6.3817296240868986e+00 -7.5676135098457644e+00 3.7235433086998158e+00 0 0 0
33 2 2 -5.7891473241824727e+00 -8.5474600390010984e+00 3.3330581984932208e+00 0 0 0
91 4 1 -2.7562500000000001e+00 -8.3354800000000004e+00 1.6875024916199077e+00 0 0 0
92 4 2 -2.8698020445462222e+00 -7.7686044845438493e+00 2.5075703180747775e+00 0 0 0
95 4 2 -3.3946216313463733e+00 -6.9845381104229594e+00 3.1866780460573141e+00 0 0 0
93 4 2 -2.1936164437005825e+00 -7.4249751213116237e+00 1.8358216892073447e+00 0 0 0
155 6 2 -1.6762033863856898e+00 -8.7133042594776047e+00 3.5309206915224101e+00 0 0 0
154 6 2 -8.6801805122346010e-01 -8.9270499097225660e+00 3.0430009972126846e+00 0 0 0
122 5 2 -1.2145131607279132e+00 -7.3289929890781860e+00 2.5387883307422778e+00 0 0 0
123 5 2 -1.1632311975091065e+00 -7.7676876984151226e+00 3.4563146339567137e+00 0 0 0
1 1 1 -7.4812500000000002e+00 -6.8199399999999999e+00 1.6875024916199077e+00 0 0 0
331 12 1 -5.9062500000000000e+00 -5.3044000000000002e+00 1.6875024916199077e+00 0 0 0
64 3 2 -6.1733962648503766e+00 -5.4131242051398987e+00 3.4567769912951132e+00 0 0 0
63 3 2 -5.5525604132941186e+00 -5.7433636610418244e+00 2.7049323820040740e+00 0 0 0
303 11 2 -7.2129509771073623e+00 -5.1176571562867510e+00 3.1307364120685168e+00 0 0 0
61 3 1 -4.3312499999999998e+00 -6.8199399999999999e+00 1.6875024916199077e+00 0 0 0
391 14 1 -2.7562500000000001e+00 -5.3044000000000002e+00 1.6875024916199077e+00 0 0 0
62 3 2 -4.6839658485755802e+00 -6.1086428947520250e+00 2.2159871135547506e+00 0 0 0
121 5 1 -1.1812499999999999e+00 -6.8199399999999999e+00 1.6875024916199077e+00 0 0 0
392 14 2 -2.3352394686550264e+00 -6.0601272839104192e+00 1.9430562273488929e+00 0 0 0
94 4 2 -2.4945873069695166e+00 -6.8582515449000017e+00 2.6397824284840614e+00 0 0 0
124 5 2 -1.6777269356255409e+00 -6.8437818992467294e+00 3.4842263232628028e+00 0 0 0
395 14 2 -1.2698366652368807e+00 -5.2563202428902729e+00 2.9029728539401978e+00 0 0 0
394 14 2 -9.6816686596682955e-01 -4.9391028698534010e+00 1.9986144231237584e+00 0 0 0
301 11 1 -7.4812500000000002e+00 -3.7888500000000001e+00 1.6875024916199077e+00 0 0 0
368 13 2 -6.0804541949410513e+00 -3.5586801311734417e+00 1.7557562018725659e+00 0 0 0
366 13 2 -6.9021868287388548e+00 -2.9425676823533848e+00 2.0122310181736260e+00 0 0 0
370 13 2 -5.5398036557784902e+00 -4.2816708106421464e+00 3.3467635044806134e+00 0 0 0
364 13 2 -6.0409957028016157e+00 -3.3319566012889985e+00 3.3852013447209424e+00 0 0 0
369 13 2 -6.0415622813030074e+00 -4.2227562722757508e+00 2.4976823879877408e+00 0 0 0
365 13 2 -6.7636006642472513e+00 -3.5179705839911772e+00 2.7430233586541335e+00 0 0 0
363 13 2 -5.6859323876094408e+00 -2.8746033377804738e+00 2.6208626821615710e+00 0 0 0
302 11 2 -7.3493623200549232e+00 -4.4464287904984818e+00 2.3918237402655138e+00 0 0 0
361 13 1 -4.3312499999999998e+00 -3.7888500000000001e+00 1.6875024916199077e+00 0 0 0
362 13 2 -4.7926826574496966e+00 -3.0206438226735011e+00 2.2349615443857860e+00 0 0 0
1063 36 2 -3.6840144105065962e+00 -4.0875601814650127e+00 3.7068008067379528e+00 0 0 0
1062 36 2 -4.0972305635195383e+00 -3.3569299699393484e+00 3.2849667926571899e+00 0 0 0
697 24 2 -2.7532674364881138e+00 -3.6747354974317794e+00 3.1001617694116073e+00 0 0 0
696 24 2 -3.4210565578331145e+00 -3.6629371730645883e+00 2.3784092521277804e+00 0 0 0
698 24 2 -2.8427251036418411e+00 -2.9064146088099556e+00 3.6312301162266580e+00 0 0 0
421 15 1 -1.1812499999999999e+00 -3.7888500000000001e+00 1.6875024916199077e+00 0 0 0
422 15 2 -1.4708721833487626e+00 -3.2284562617576937e+00 2.4193343160856942e+00 0 0 0
423 15 2 -1.3066941678815827e+00 -3.2011349852862034e+00 3.4441137981776238e+00 0 0 0
398 14 2 -3.0112403835833063e-01 -4.2233867718116844e+00 3.6177553549893058e+00 0 0 0
397 14 2 -4.8044205411669227e-01 -3.9699167494019187e+00 2.6346487523364095e+00 0 0 0
396 14 2 -1.3055506057530175e+00 -4.2607596225141977e+00 2.9624974850473014e+00 0 0 0
631 22 1 -5.9062500000000000e+00 -2.2733099999999999e+00 1.6875024916199077e+00 0 0 0
601 21 1 -7.4812500000000002e+00 -7.5777000000000005e-01 1.6875024916199077e+00 0 0 0
632 22 2 -5.4901308121318966e+00 -1.8214846333597778e+00 2.4234911167174564e+00 0 0 0
633 22 2 -6.2043657838008146e+00 -1.8468518584362281e+00 3.2257956325467343e+00 0 0 0
663 23 2 -5.9068699887130780e+00 -7.4059376742159821e-01 2.5783028341794223e+00 0 0 0
664 23 2 -5.8031197610986807e+00 -8.9638952201488387e-01 3.5234940969629700e+00 0 0 0
662 23 2 -5.1375482413523548e+00 -4.3272393402135545e-01 2.0589642941917252e+00 0 0 0
691 24 1 -2.7562500000000001e+00 -2.2733099999999999e+00 1.6875024916199077e+00 0 0 0
661 23 1 -4.3312499999999998e+00 -7.5777000000000005e-01 1.6875024916199077e+00 0 0 0
1061 36 2 -4.0366009530747462e+00 -2.3574195184045421e+00 3.2720460946360115e+00 0 0 0
1060 36 2 -4.1715548579513122e+00 -1.4984377170512890e+00 3.6301993582014958e+00 0 0 0
1059 36 2 -3.7896026996130514e+00 -1.4462466827970086e+00 2.7599003713929569e+00 0 0 0
1058 36 2 -3.6136726287033234e+00 -5.7986080560011166e-01 3.1498453328123701e+00 0 0 0
721 25 1 -1.1812499999999999e+00 -7.5777000000000005e-01 1.6875024916199077e+00 0 0 0
722 25 2 -8.8391509943664182e-01 -1.5026352859252936e+00 2.2133878291077438e+00 0 0 0
723 25 2 -1.0355196184825437e+00 -2.1589496313124004e+00 2.9295811787981778e+00 0 0 0
724 25 2 -1.7571912642996135e-01 -1.9676079516086966e+00 3.3571937447938569e+00 0 0 0
277 10 2 -7.4698881703537827e+00 -9.0401049835962670e+00 4.2822142121613762e+00 1 0 0
337 12 2 -5.7773035777455570e+00 -7.0312966836120099e+00 4.2300595372808871e+00 0 0 0
35 2 2 -5.8214042193775146e+00 -8.1989452529417246e+00 4.3985135702980918e+00 0 0 0
338 12 2 -5.5585641102844399e+00 -7.1232146651507371e+00 5.1316389331162453e+00 0 0 0
1567 53 2 -5.7912939134856449e+00 -8.9470771151874171e+00 5.9792926739008134e+00 0 1 0
278 10 2 -7.4626849080810107e+00 -8.2969148788609850e+00 4.8474721841623731e+00 1 0 0
96 4 2 -3.2556531839782705e+00 -7.7741411540974132e+00 3.8179042877962650e+00 0 0 0
97 4 2 -3.2497743374933798e+00 -6.9704775968441810e+00 4.3440176769174617e+00 0 0 0
37 2 2 -4.8425206725873728e+00 -8.9435995425722652e+00 5.8223117973999425e+00 0 0 0
339 12 2 -4.7371437561705099e+00 -7.1746831644300597e+00 5.5759365488907449e+00 0 0 0
98 4 2 -3.6041707156174070e+00 -7.5030098193652615e+00 5.0805780416517310e+00 0 0 0
99 4 2 -2.8092928483654287e+00 -7.9942434535696734e+00 5.0627925033716057e+00 0 0 0
36 2 2 -5.1988791778703476e+00 -8.3228053838197802e+00 5.1696345814141251e+00 0 0 0
158 6 2 -1.6404933112802247e+00 -7.6774257365698571e+00 5.3002764386280585e+00 0 0 0
156 6 2 -1.6629809681931382e+00 -7.9893874334496688e+00 4.2621096764407227e+00 0 0 0
491 17 2 -2.2370822801529849e-01 -8.6715638987588530e+00 5.4360291162326311e+00 0 0 0
100 4 2 -2.4016898792938255e+00 -7.7487740809150552e+00 5.9365054751824395e+00 0 0 0
159 6 2 -1.2326852962071715e+00 -6.8954284307207603e+00 5.6678525750293165e+00 0 0 0
157 6 2 -1.2682615739722758e+00 -7.0752706863053545e+00 4.6345177779241347e+00 0 0 0
65 3 2 -6.5565282779953504e+00 -6.1759605920890275e+00 4.0350578477370771e+00 0 0 0
373 13 2 -5.3876145404626650e+00 -4.8973758815303139e+00 4.7635302569793936e+00 0 0 0
304 11 2 -7.8026205249003961e+00 -5.5131144807314012e+00 3.8321205263227491e+00 0 0 0
66 3 2 -7.3443534078244497e+00 -6.5434871377113639e+00 4.4793556332050644e+00 0 0 0
67 3 2 -7.7211428190195326e+00 -6.4971683642250575e+00 5.3307703103987869e+00 0 0 0
1065 36 2 -3.0600910903251148e+00 -5.2066058393460004e+00 4.7948541934429283e+00 0 0 0
1066 36 2 -4.0542524951428023e+00 -5.3242533395048053e+00 4.6300484698911717e+00 0 0 0
1068 36 2 -4.7142487793080941e+00 -5.9335126293966454e+00 5.0262894287831612e+00 0 0 0
1067 36 2 -4.4913946741618966e+00 -5.9533817609749162e+00 4.0765443799598176e+00 0 0 0
1064 36 2 -3.0897810614393566e+00 -4.7929379592032539e+00 3.8326798726094005e+00 0 0 0
1069 36 2 -3.7646199630793471e+00 -6.1089416827871723e+00 5.3412639324006772e+00 0 0 0
125 5 2 -2.4645252314763715e+00 -6.4141210466125385e+00 4.0253436017884221e+00 0 0 0
127 5 2 -2.2897494712755790e+00 -6.5027705404415581e+00 5.8124291206843157e+00 0 0 0
161 6 2 -8.9526777972541183e-01 -5.5783442732802380e+00 5.5319783413419410e+00 0 0 0
160 6 2 -4.0674785456688034e-01 -6.3412661414637155e+00 5.7036944841245454e+00 0 0 0
126 5 2 -2.0447234727049008e+00 -6.3019877078582605e+00 4.8974555886211757e+00 0 0 0
376 13 2 -7.2186215186939435e+00 -3.0057696377224605e+00 4.5833861594759586e+00 0 0 0
375 13 2 -6.5927333111450110e+00 -3.4275375825322349e+00 5.0825389156826333e+00 0 0 0
635 22 2 -6.3111369437867468e+00 -2.5610559662958181e+00 4.6590626767321703e+00 0 0 0
374 13 2 -5.9569986537659245e+00 -4.2245772095804952e+00 5.0601864122279290e+00 0 0 0
372 13 2 -4.5993614524929374e+00 -4.2800223140784732e+00 4.9126639811365322e+00 0 0 0
371 13 2 -5.2437888474930405e+00 -4.0751463566018762e+00 4.2287679093659243e+00 0 0 0
699 24 2 -3.1437604076642716e+00 -3.4411428586649309e+00 4.3381573651847232e+00 0 0 0
701 24 2 -3.0184188326281576e+00 -3.6944635686894669e+00 5.6131073125221178e+00 0 0 0
700 24 2 -3.4802916281786929e+00 -4.1889619506006150e+00 4.8417551265399572e+00 0 0 0
702 24 2 -3.9672720495293210e+00 -3.6075942912891024e+00 5.7028037359499928e+00 0 0 0
399 14 2 -4.3290069631509387e-01 -4.1747191965421484e+00 4.5333385827732195e+00 0 0 0
424 15 2 -1.2324083841351237e+00 -3.3046801297312554e+00 4.3869682272819546e+00 0 0 0
425 15 2 -1.3045202139980023e+00 -2.6856075233071723e+00 5.1124610605446401e+00 0 0 0
426 15 2 -1.8274873944365557e+00 -3.0392428568251773e+00 5.7765984679011879e+00 0 0 0
401 14 2 -5.5256124488761549e-01 -3.0073102954483413e+00 5.9087638981552209e+00 0 0 0
400 14 2 -4.4408461121162451e-01 -3.3672689907885816e+00 5.0509116473183662e+00 0 0 0
634 22 2 -5.8204683869548512e+00 -1.9501192857367271e+00 4.1856994434931671e+00 0 0 0
608 21 2 -7.1595416515846511e+00 -1.3773408789695674e+00 5.7409250848440658e+00 0 0 0
607 21 2 -6.8828563165690442e+00 -1.4418763809464212e+00 4.8668108770346512e+00 0 0 0
636 22 2 -6.7381179727937361e+00 -2.4111128779947890e+00 5.5944699582660107e+00 0 0 0
639 22 2 -5.5814027674899549e+00 -5.3628149617588283e-01 5.7702042754687399e+00 0 0 0
638 22 2 -5.5397512032669640e+00 -1.5229430276193956e+00 5.8864662971825945e+00 0 0 0
606 21 2 -7.4429794981657631e+00 -9.9614932760231389e-01 4.2540981224715253e+00 0 0 0
665 23 2 -4.9661724429956431e+00 -1.0560402091854917e+00 4.0694310046450388e+00 0 0 0
666 23 2 -4.5028349166092889e+00 -8.0273738497229186e-01 4.8356585727519192e+00 0 0 0
567 19 2 -3.5186608978738541e+00 -1.8204106359351286e+00 4.8023407417023813e+00 0 0 0
566 19 2 -3.1793288532943320e+00 -2.3742591356921494e+00 5.5414478715818767e+00 0 0 0
568 19 2 -3.8191719152524106e+00 -1.1803931417924380e+00 5.4745412004961116e+00 0 0 0
1029 35 2 -2.8328044010962574e+00 -6.2286781549932524e-01 6.0199920360217689e+00 0 0 0
561 19 2 -4.0848879947766387e-01 -3.8585538737572378e-01 4.7544095230858314e+00 0 0 0
564 19 2 -1.5079611910715456e+00 -1.4304969091614028e+00 5.4213551742207402e+00 0 0 0
563 19 2 -5.5919644528897461e-01 -1.8819606053644731e+00 5.3805665825916851e+00 0 0 0
565 19 2 -2.3497151192967380e+00 -1.9043401640937092e+00 5.3284529823594582e+00 0 0 0
562 19 2 -6.3605444353553298e-01 -9.1755102239050634e-01 5.4934018219798686e+00 0 0 0
560 19 2 -9.1735227897369861e-02 -4.5936265378696622e-01 3.7995903510570015e+00 0 0 0
1568 53 2 -5.9136471464303497e+00 -8.0165875569102880e+00 6.1957560233982027e+00 0 1 0
69 3 2 -7.6501212964256080e+00 -7.2951434015843102e+00 6.7624262270376132e+00 0 0 0
70 3 2 -6.8045862247274176e+00 -7.2035717891299562e+00 7.1988404550478302e+00 0 0 0
1569 53 2 -5.7900486038290975e+00 -8.2505745456276625e+00 7.0653951864200319e+00 0 1 0
71 3 2 -6.8624336026819517e+00 -7.4655771056060125e+00 8.1319552445743888e+00 0 0 0
1571 53 2 -5.6976148615464757e+00 -8.9218823312088968e+00 8.1773891589976824e+00 0 1 0
39 2 2 -4.2608382286002824e+00 -8.3496814439376550e+00 7.1250691147564362e+00 0 0 0
40 2 2 -4.4285343118256737e+00 -8.5414086934811539e+00 8.0463770390901317e+00 0 0 0
38 2 2 -4.1320908535978162e+00 -8.5238696472024600e+00 6.1776394303189512e+00 0 0 0
342 12 2 -3.1757510487202376e+00 -7.2044859671395782e+00 7.8335043131274960e+00 0 0 0
719 24 2 -4.9867159269477455e+00 -6.9638336705241466e+00 8.1798191016508639e+00 0 0 0
493 17 2 -6.7288174894551367e-01 -8.5344136706069857e+00 6.2447324691025328e+00 0 0 0
101 4 2 -2.2157655897810957e+00 -8.3945066861302973e+00 6.5772923105956549e+00 0 0 0
102 4 2 -2.1778112273098040e+00 -7.8629003092486141e+00 7.3751898558512607e+00 0 0 0
103 4 2 -1.5395247044289309e+00 -7.3117070342443027e+00 7.7328612115000102e+00 0 0 0
104 4 2 -1.1421045293027861e+00 -8.1161403498387461e+00 7.3718361291239036e+00 0 0 0
105 4 2 -7.5715871786285760e-01 -8.4563124158264475e+00 8.0934828383595239e+00 0 0 0
1074 36 2 -6.2058402379307678e+00 -5.0058855869430721e+00 6.6802888396914613e+00 0 0 0
717 24 2 -5.5493247381093651e+00 -5.9209611703745919e+00 7.7468108186252733e+00 0 0 0
68 3 2 -7.5232161306011918e+00 -6.4696391854882824e+00 6.2634489602233696e+00 0 0 0
250 9 2 -7.2924051587121141e+00 -4.8183592982849657e+00 8.1068692916199225e+00 1 0 0
716 24 2 -6.4923910690520188e+00 -6.0518028868007194e+00 7.9664481006277477e+00 0 0 0
340 12 2 -4.0418494754095633e+00 -6.8556643637006029e+00 6.1581712646787512e+00 0 0 0
341 12 2 -3.6076169925240191e+00 -6.7953351098039141e+00 7.0436594459745541e+00 0 0 0
1071 36 2 -3.7231915296880591e+00 -4.7360585024401969e+00 6.6560776000070589e+00 0 0 0
1070 36 2 -3.9846805193719455e+00 -5.5427034239225588e+00 6.2167592998388770e+00 0 0 0
1077 36 2 -3.9436057426246007e+00 -4.7544857517647738e+00 7.9137519770667417e+00 0 0 0
1076 36 2 -4.7766892612087437e+00 -4.7120825275379170e+00 7.2912297975371336e+00 0 0 0
720 24 3 -4.4672662732105790e+00 -6.6490748345136295e+00 7.4730316688690319e+00 0 0 0
1079 36 2 -3.8820687172436390e+00 -5.8254660848265534e+00 8.0916566360724627e+00 0 0 0
128 5 2 -2.3476147909460221e+00 -6.4926484778654787e+00 6.7887242913925876e+00 0 0 0
129 5 2 -2.2309905450147385e+00 -5.6755644389141038e+00 7.3919278170559553e+00 0 0 0
162 6 2 -8.2809435810353438e-01 -5.4828675443276058e+00 6.6109463126135699e+00 0 0 0
130 5 2 -2.6208828954268277e+00 -6.2360197603864025e+00 8.0336830676231621e+00 0 0 0
1073 36 2 -5.4114980347313111e+00 -4.6391173186566874e+00 6.1349421946033207e+00 0 0 0
1075 36 2 -5.6873884619545771e+00 -4.6181652552486723e+00 7.3646512789807588e+00 0 0 0
612 21 2 -6.3605825613304896e+00 -2.7298291277179776e+00 7.6173251738523255e+00 0 0 0
248 9 2 -7.5284941207795271e+00 -4.2299976150245673e+00 6.7306354601287897e+00 1 0 0
613 21 2 -7.2575523889173796e+00 -2.8862022202779261e+00 7.8395724080833764e+00 0 0 0
249 9 2 -7.7113229978580247e+00 -4.0717552943597592e+00 7.7207689231700583e+00 1 0 0
1072 36 2 -4.5298608275823140e+00 -4.4964902388157491e+00 6.1185795460204151e+00 0 0 0
703 24 2 -3.4904399376281172e+00 -3.4701563641911091e+00 6.5687938161724393e+00 0 0 0
704 24 2 -4.0951008840189047e+00 -2.9851296913579128e+00 7.0773162027580021e+00 0 0 0
430 15 2 -2.8819540626124187e+00 -2.6500202806693420e+00 8.2023663855484852e+00 0 0 0
427 15 2 -2.3177883647581425e+00 -3.6319724361783203e+00 6.4032242466916909e+00 0 0 0
428 15 2 -1.7585750542815686e+00 -3.6570320894964490e+00 7.2141441527823833e+00 0 0 0
429 15 2 -2.5611013619168781e+00 -3.3245041421303032e+00 7.6874616496225956e+00 0 0 0
733 25 2 -5.3620286788710825e-01 -3.6312476515635144e+00 8.2717075314380377e+00 0 0 0
642 22 2 -5.6511519763108211e+00 -1.6023425366139625e+00 7.1853264107957946e+00 0 0 0
611 21 2 -7.1346848396341080e+00 -2.2828369312202450e+00 7.0974796636452764e+00 0 0 0
610 21 2 -7.5916391686803824e+00 -1.4799822649817083e+00 7.2968208295710459e+00 0 0 0
640 22 2 -5.7752007759721993e+00 -6.7071444380177747e-01 6.7806668362186713e+00 0 0 0
637 22 2 -5.9431414264574505e+00 -2.3645986667211876e+00 6.2134326337098740e+00 0 0 0
609 21 2 -7.8062655832210153e+00 -1.6255212982735492e+00 6.3822387345823612e+00 0 0 0
915 31 2 -6.6808980469115413e+00 -1.9496249403611090e+00 8.1160106062449202e+00 0 0 0
643 22 2 -5.6725184041590007e+00 -1.3220479963469445e+00 8.1229744700040225e+00 0 0 0
641 22 2 -4.9140465755412697e+00 -1.0070860821150223e+00 7.0982216886670404e+00 0 0 0
1030 35 2 -2.9709374213707056e+00 -1.2735550718372710e+00 6.8120682786850759e+00 0 0 0
1031 35 2 -2.6807761745892398e+00 -1.7216826339376383e+00 7.6073719849276920e+00 0 0 0
705 24 2 -4.2972454881011961e+00 -2.1548879898270541e+00 7.5224429491082221e+00 0 0 0
402 14 2 -5.4634770404235400e-01 -2.3470535122388272e+00 6.6211070206161864e+00 0 0 0
404 14 2 -7.3916045957426979e-01 -2.3267010273086011e+00 7.5966972364844247e+00 0 0 0
72 3 2 -7.3561371616665934e+00 -7.8298579963462389e+00 8.9114226971942951e+00 0 0 0
1574 53 2 -5.3657543643136405e+00 -7.9129824455820303e+00 1.0156712828459499e+01 0 1 0
1572 53 2 -6.4293790931295272e+00 -8.4216979691619240e+00 8.6032765085152487e+00 0 1 0
1573 53 2 -6.0173931590652119e+00 -8.0400167077783884e+00 9.3739279611731092e+00 0 1 0
289 10 2 -7.1329727634438056e+00 -9.0395389205038867e+00 1.0201019953805064e+01 1 0 0
73 3 2 -7.7395409225183380e+00 -6.9027209330507979e+00 8.9268960308848122e+00 0 0 0
76 3 2 -7.4936733550012598e+00 -7.6577299306466546e+00 1.0396629763077980e+01 0 0 0
44 2 2 -4.6469763725719391e+00 -7.1183113631654091e+00 9.2979587502617491e+00 0 0 0
42 2 2 -4.6600105681719732e+00 -8.3819221072781342e+00 9.1988525731414512e+00 0 0 0
43 2 2 -5.1498179963677275e+00 -7.7605909464150713e+00 8.6758279026805596e+00 0 0 0
345 12 2 -2.8299342520360455e+00 -7.5557103810637054e+00 9.7688820376449694e+00 0 0 0
344 12 2 -3.4365896898262007e+00 -8.2103182018629504e+00 9.3273921032867229e+00 0 0 0
343 12 2 -3.0744516601614924e+00 -7.7094349250161169e+00 8.6548071250235257e+00 0 0 0
108 4 2 -1.3548206534904086e+00 -8.5160357673460130e+00 9.4550404955760428e+00 0 0 0
106 4 2 -5.2436747315896248e-01 -7.7104001495853201e+00 8.6543337406950549e+00 0 0 0
107 4 2 -5.7040309107957854e-01 -7.9493514017483395e+00 9.5505265119331888e+00 0 0 0
769 26 2 -8.1228967481915770e-02 -7.5162156228162074e+00 1.0485394744023361e+01 0 0 0
110 4 2 -8.2446020643150153e-01 -8.9614371071111876e+00 1.0233826431579841e+01 0 0 0
346 12 2 -2.2885036740444646e+00 -7.9991151499525239e+00 1.0479925452094800e+01 0 0 0
253 9 2 -6.8989902756335830e+00 -5.3205609355327095e+00 9.7524621599724668e+00 1 0 0
74 3 2 -7.2622931729064950e+00 -6.7112707084257641e+00 9.7847091350552500e+00 0 0 0
718 24 2 -5.7650832069579208e+00 -6.5728796903961264e+00 8.5808859435908200e+00 0 0 0
715 24 2 -6.2904577918454798e+00 -5.4932587726528963e+00 8.7120131285795015e+00 0 0 0
714 24 2 -5.8031251451029355e+00 -4.7458511112709196e+00 9.0237755448049111e+00 0 0 0
252 9 2 -7.4595680989456330e+00 -4.8300989769465081e+00 9.1677890708771574e+00 1 0 0
254 9 2 -6.2277881612770036e+00 -5.6422045525970379e+00 1.0432010055996384e+01 1 0 0
712 24 2 -4.6427589796970592e+00 -4.9138381052743183e+00 9.7164978183921704e+00 0 0 0
45 2 2 -4.2435069573182389e+00 -6.3777655667114095e+00 9.7788154132893421e+00 0 0 0
1078 36 2 -4.4121535618374814e+00 -5.3321286729380688e+00 8.6755549619436660e+00 0 0 0
1080 36 3 -4.1662607180054829e+00 -6.5590115517074796e+00 8.6561606540306606e+00 0 0 0
132 5 2 -2.8274854536466791e+00 -5.1792813201388981e+00 8.9237170825612342e+00 0 0 0
133 5 2 -2.7031283952598288e+00 -5.7325529184333357e+00 9.6990429403754490e+00 0 0 0
134 5 2 -3.0814045452423326e+00 -5.6903833246407682e+00 1.0555495311484467e+01 0 0 0
46 2 2 -4.8914195714733406e+00 -6.1357457505384092e+00 1.0442534283249499e+01 0 0 0
767 26 2 -8.2000260003717207e-01 -5.9438685199157897e+00 9.6131887100650548e+00 0 0 0
766 26 2 -3.0458730489685232e-01 -6.6729266685261841e+00 9.1617875965134914e+00 0 0 0
131 5 2 -2.1346638170698125e+00 -5.7154613185464402e+00 8.6996701834469192e+00 0 0 0
768 26 2 -6.8655105118794169e-01 -6.7769679481617251e+00 1.0237670420649629e+01 0 0 0
918 31 2 -6.2238253740595066e+00 -2.8089268485149637e+00 9.8514070990991893e+00 0 0 0
614 21 2 -7.7141929251214760e+00 -2.8747185096259038e+00 8.6865252404518696e+00 0 0 0
917 31 2 -5.8807561044046883e+00 -3.1559988636121723e+00 9.0035524009048249e+00 0 0 0
916 31 2 -6.6562727541520186e+00 -2.5995038141856499e+00 8.8118089112213500e+00 0 0 0
919 31 2 -7.1160949124359192e+00 -3.0578537285513159e+00 1.0308686180995451e+01 0 0 0
432 15 2 -3.2192798072400590e+00 -3.1359967599183740e+00 9.2561616283868382e+00 0 0 0
433 15 2 -2.6255449739618895e+00 -3.0649390994629400e+00 1.0077268011206302e+01 0 0 0
713 24 2 -5.1864618633162198e+00 -4.1669169364427887e+00 9.5588019496535654e+00 0 0 0
708 24 2 -4.8308835095604712e+00 -2.6376636754362446e+00 1.0076828469142759e+01 0 0 0
706 24 2 -4.0404379400813548e+00 -2.4493136527329313e+00 8.3478082301969732e+00 0 0 0
710 24 2 -4.0649518173671506e+00 -4.2891821539767410e+00 1.0304160600282502e+01 0 0 0
709 24 2 -4.6771952911282426e+00 -3.5162988127571517e+00 1.0447698365298351e+01 0 0 0
431 15 2 -2.3707106084719882e+00 -3.2338118419704642e+00 8.8795648652020525e+00 0 0 0
734 25 2 -6.0491233683321000e-01 -3.6832911056626263e+00 9.2307619263257443e+00 0 0 0
736 25 2 -4.2300392473794607e-01 -3.7103011500255150e+00 1.0435562826884475e+01 0 0 0
645 22 2 -5.6297682636377013e+00 -1.8222558478349320e+00 9.8323690363914622e+00 0 0 0
914 31 2 -7.0621684831782421e+00 -1.1522670947918445e+00 8.4362552155946808e+00 0 0 0
644 22 2 -5.9675913380546399e+00 -1.3272766767925483e+00 9.0489259987457267e+00 0 0 0
1032 35 2 -2.6544561147775236e+00 -1.3403524421517368e+00 8.4800002090728235e+00 0 0 0
707 24 2 -4.7162552425600097e+00 -2.3221115485342296e+00 9.1698343493575436e+00 0 0 0
690 23 3 -4.7431585814886033e+00 -2.8455315838209488e-01 9.4556846294297863e+00 0 0 0