LAMMPS data file via write_data, version 31 Mar 2017, timestep = 5000000

2101 atoms
5 atom types
1740 bonds
1 bond types

-7.8750000000000000e+00 7.8750000000000000e+00 xlo xhi
-9.0932499999999994e+00 9.0932499999999994e+00 ylo yhi
-3.0000000000000000e+00 4.0000000000000000e+01 zlo zhi

Masses

1 1
2 1
3 1
4 1
5 1

Pair Coeffs # lj/expand

1 1 1 0
2 1 1 0
3 1 1 0
4 0 0 0
5 1 1 3

Bond Coeffs # fene

1 30 1.5 1 1

Atoms # bond

1801 61 4 -7.8750000000000000e+00 -9.0932499999999994e+00 0.0000000000000000e+00 0 0 0
1802 62 4 -7.8750000000000000e+00 -7.2746000000000004e+00 0.0000000000000000e+00 0 0 0
1811 71 4 -7.3499999999999996e+00 -8.1839300000000001e+00 0.0000000000000000e+00 0 0 0
1821 81 4 -6.8250000000000002e+00 -9.0932499999999994e+00 0.0000000000000000e+00 0 0 0
1822 82 4 -6.8250000000000002e+00 -7.2746000000000004e+00 0.0000000000000000e+00 0 0 0
1831 91 4 -6.2999999999999998e+00 -8.1839300000000001e+00 0.0000000000000000e+00 0 0 0
1841 101 4 -5.7750000000000004e+00 -9.0932499999999994e+00 0.0000000000000000e+00 0 0 0
1842 102 4 -5.7750000000000004e+00 -7.2746000000000004e+00 0.0000000000000000e+00 0 0 0
1851 111 4 -5.2500000000000000e+00 -8.1839300000000001e+00 0.0000000000000000e+00 0 0 0
1861 121 4 -4.7249999999999996e+00 -9.0932499999999994e+00 0.0000000000000000e+00 0 0 0
1862 122 4 -4.7249999999999996e+00 -7.2746000000000004e+00 0.0000000000000000e+00 0 0 0
1871 131 4 -4.2000000000000002e+00 -8.1839300000000001e+00 0.0000000000000000e+00 0 0 0
1881 141 4 -3.6749999999999998e+00 -9.0932499999999994e+00 0.0000000000000000e+00 0 0 0
1882 142 4 -3.6749999999999998e+00 -7.2746000000000004e+00 0.0000000000000000e+00 0 0 0
1891 151 4 -3.1499999999999999e+00 -8.1839300000000001e+00 0.0000000000000000e+00 0 0 0
1901 161 4 -2.6250000000000000e+00 -9.0932499999999994e+00 0.0000000000000000e+00 0 0 0
1902 162 4 -2.6250000000000000e+00 -7.2746000000000004e+00 0.0000000000000000e+00 0 0 0
1911 171 4 -2.1000000000000001e+00 -8.1839300000000001e+00 0.0000000000000000e+00 0 0 0
1921 181 4 -1.5750000000000000e+00 -9.0932499999999994e+00 0.0000000000000000e+00 0 0 0
1922 182 4 -1.5750000000000000e+00 -7.2746000000000004e+00 0.0000000000000000e+00 0 0 0
1931 191 4 -1.0500000000000000e+00 -8.1839300000000001e+00 0.0000000000000000e+00 0 0 0
1942 202 4 -5.2500000000000002e-01 -7.2746000000000004e+00 0.0000000000000000e+00 0 0 0
1941 201 4 -5.2500000000000002e-01 -9.0932499999999994e+00 0.0000000000000000e+00 0 0 0
1812 72 4 -7.3499999999999996e+00 -6.3652800000000003e+00 0.0000000000000000e+00 0 0 0
1832 92 4 -6.2999999999999998e+00 -6.3652800000000003e+00 0.0000000000000000e+00 0 0 0
1803 63 4 -7.8750000000000000e+00 -5.4559499999999996e+00 0.0000000000000000e+00 0 0 0
1823 83 4 -6.8250000000000002e+00 -5.4559499999999996e+00 0.0000000000000000e+00 0 0 0
1843 103 4 -5.7750000000000004e+00 -5.4559499999999996e+00 0.0000000000000000e+00 0 0 0
1813 73 4 -7.3499999999999996e+00 -4.5466300000000004e+00 0.0000000000000000e+00 0 0 0
1833 93 4 -6.2999999999999998e+00 -4.5466300000000004e+00 0.0000000000000000e+00 0 0 0
1852 112 4 -5.2500000000000000e+00 -6.3652800000000003e+00 0.0000000000000000e+00 0 0 0
1853 113 4 -5.2500000000000000e+00 -4.5466300000000004e+00 0.0000000000000000e+00 0 0 0
1872 132 4 -4.2000000000000002e+00 -6.3652800000000003e+00 0.0000000000000000e+00 0 0 0
1892 152 4 -3.1499999999999999e+00 -6.3652800000000003e+00 0.0000000000000000e+00 0 0 0
1863 123 4 -4.7249999999999996e+00 -5.4559499999999996e+00 0.0000000000000000e+00 0 0 0
1883 143 4 -3.6749999999999998e+00 -5.4559499999999996e+00 0.0000000000000000e+00 0 0 0
1873 133 4 -4.2000000000000002e+00 -4.5466300000000004e+00 0.0000000000000000e+00 0 0 0
1893 153 4 -3.1499999999999999e+00 -4.5466300000000004e+00 0.0000000000000000e+00 0 0 0
332 12 2 -5.0079675345564549e+00 -5.2294693199068636e+00 1.2201617051633591e+00 0 0 0
1903 163 4 -2.6250000000000000e+00 -5.4559499999999996e+00 0.0000000000000000e+00 0 0 0
1912 172 4 -2.1000000000000001e+00 -6.3652800000000003e+00 0.0000000000000000e+00 0 0 0
1932 192 4 -1.0500000000000000e+00 -6.3652800000000003e+00 0.0000000000000000e+00 0 0 0
1923 183 4 -1.5750000000000000e+00 -5.4559499999999996e+00 0.0000000000000000e+00 0 0 0
1943 203 4 -5.2500000000000002e-01 -5.4559499999999996e+00 0.0000000000000000e+00 0 0 0
1913 173 4 -2.1000000000000001e+00 -4.5466300000000004e+00 0.0000000000000000e+00 0 0 0
1933 193 4 -1.0500000000000000e+00 -4.5466300000000004e+00 0.0000000000000000e+00 0 0 0
1804 64 4 -7.8750000000000000e+00 -3.6373000000000002e+00 0.0000000000000000e+00 0 0 0
1824 84 4 -6.8250000000000002e+00 -3.6373000000000002e+00 0.0000000000000000e+00 0 0 0
1844 104 4 -5.7750000000000004e+00 -3.6373000000000002e+00 0.0000000000000000e+00 0 0 0
1814 74 4 -7.3499999999999996e+00 -2.7279800000000001e+00 0.0000000000000000e+00 0 0 0
1834 94 4 -6.2999999999999998e+00 -2.7279800000000001e+00 0.0000000000000000e+00 0 0 0
1854 114 4 -5.2500000000000000e+00 -2.7279800000000001e+00 0.0000000000000000e+00 0 0 0
1864 124 4 -4.7249999999999996e+00 -3.6373000000000002e+00 0.0000000000000000e+00 0 0 0
1884 144 4 -3.6749999999999998e+00 -3.6373000000000002e+00 0.0000000000000000e+00 0 0 0
1874 134 4 -4.2000000000000002e+00 -2.7279800000000001e+00 0.0000000000000000e+00 0 0 0
1894 154 4 -3.1499999999999999e+00 -2.7279800000000001e+00 0.0000000000000000e+00 0 0 0
1904 164 4 -2.6250000000000000e+00 -3.6373000000000002e+00 0.0000000000000000e+00 0 0 0
1924 184 4 -1.5750000000000000e+00 -3.6373000000000002e+00 0.0000000000000000e+00 0 0 0
1944 204 4 -5.2500000000000002e-01 -3.6373000000000002e+00 0.0000000000000000e+00 0 0 0
1914 174 4 -2.1000000000000001e+00 -2.7279800000000001e+00 0.0000000000000000e+00 0 0 0
1934 194 4 -1.0500000000000000e+00 -2.7279800000000001e+00 0.0000000000000000e+00 0 0 0
1805 65 4 -7.8750000000000000e+00 -1.8186500000000001e+00 0.0000000000000000e+00 0 0 0
1815 75 4 -7.3499999999999996e+00 -9.0932999999999997e-01 0.0000000000000000e+00 0 0 0
1825 85 4 -6.8250000000000002e+00 -1.8186500000000001e+00 0.0000000000000000e+00 0 0 0
1835 95 4 -6.2999999999999998e+00 -9.0932999999999997e-01 0.0000000000000000e+00 0 0 0
1845 105 4 -5.7750000000000004e+00 -1.8186500000000001e+00 0.0000000000000000e+00 0 0 0
1855 115 4 -5.2500000000000000e+00 -9.0932999999999997e-01 0.0000000000000000e+00 0 0 0
1865 125 4 -4.7249999999999996e+00 -1.8186500000000001e+00 0.0000000000000000e+00 0 0 0
1875 135 4 -4.2000000000000002e+00 -9.0932999999999997e-01 0.0000000000000000e+00 0 0 0
1885 145 4 -3.6749999999999998e+00 -1.8186500000000001e+00 0.0000000000000000e+00 0 0 0
1895 155 4 -3.1499999999999999e+00 -9.0932999999999997e-01 0.0000000000000000e+00 0 0 0
1905 165 4 -2.6250000000000000e+00 -1.8186500000000001e+00 0.0000000000000000e+00 0 0 0
1915 175 4 -2.1000000000000001e+00 -9.0932999999999997e-01 0.0000000000000000e+00 0 0 0
1925 185 4 -1.5750000000000000e+00 -1.8186500000000001e+00 0.0000000000000000e+00 0 0 0
1935 195 4 -1.0500000000000000e+00 -9.0932999999999997e-01 0.0000000000000000e+00 0 0 0
1945 205 4 -5.2500000000000002e-01 -1.8186500000000001e+00 0.0000000000000000e+00 0 0 0
31 2 1 -5.9062500000000000e+00 -8.3354800000000004e+00 1.6875024916199077e+00 0 0 0
1 1 1 -7.4812500000000002e+00 -6.8199399999999999e+00 1.6875024916199077e+00 0 0 0
1564 53 2 -6.2545668671672425e+00 -9.0582012526140741e+00 2.6798587042889470e+00 0 1 0
1566 53 2 -6.0968917010183823e+00 -9.0838426644604535e+00 3.6965880499832111e+00 0 1 0
32 2 2 -5.9244269411725305e+00 -7.6765566870627646e+00 2.3743742141500941e+00 0 0 0
33 2 2 -6.2938455792893935e+00 -7.2293881772329547e+00 3.0323344752263313e+00 0 0 0
1565 53 2 -6.8952586396640241e+00 -8.6996957026329316e+00 3.3094243602377520e+00 0 1 0
61 3 1 -4.3312499999999998e+00 -6.8199399999999999e+00 1.6875024916199077e+00 0 0 0
92 4 2 -2.8874596033472821e+00 -8.2639109146516319e+00 2.6512119948173791e+00 0 0 0
63 3 2 -3.8534192968781324e+00 -7.9345095316485583e+00 3.2979573788320029e+00 0 0 0
62 3 2 -4.0476233480113901e+00 -7.3374818189457516e+00 2.5672562831637813e+00 0 0 0
91 4 1 -2.7562500000000001e+00 -8.3354800000000004e+00 1.6875024916199077e+00 0 0 0
121 5 1 -1.1812499999999999e+00 -6.8199399999999999e+00 1.6875024916199077e+00 0 0 0
126 5 2 -1.8322409997130995e+00 -7.8958990916237690e+00 3.7154324515877377e+00 0 0 0
125 5 2 -8.8755889753175432e-01 -7.7828862335282780e+00 3.5742166720430602e+00 0 0 0
124 5 2 -8.9640932249493277e-01 -8.1769508543727731e+00 2.6268236235105014e+00 0 0 0
122 5 2 -6.9103975955921249e-01 -7.6033510325977733e+00 1.7008825223463271e+00 0 0 0
123 5 2 -9.3731182340168340e-01 -7.2653856662975125e+00 2.5557010630920121e+00 0 0 0
93 4 2 -2.1767589629738602e+00 -8.6713666692118601e+00 3.1871663254782590e+00 0 0 0
331 12 1 -5.9062500000000000e+00 -5.3044000000000002e+00 1.6875024916199077e+00 0 0 0
3 1 2 -7.4618618677956734e+00 -6.1410852157285412e+00 2.7806715607825088e+00 0 0 0
34 2 2 -5.6854924282373833e+00 -6.5656878169411668e+00 3.4645217715330290e+00 0 0 0
335 12 2 -5.7647666663799164e+00 -4.7338064996389990e+00 3.1533605001015670e+00 0 0 0
336 12 2 -6.7060735266608678e+00 -4.7046458018804485e+00 3.2842170935907395e+00 0 0 0
4 1 2 -6.9080214789236161e+00 -6.1146391823437822e+00 3.4859604409802474e+00 0 0 0
2 1 2 -7.7320035446238107e+00 -5.8959412452265729e+00 1.8566889421433364e+00 0 0 0
393 14 2 -3.7105462916600240e+00 -6.2403526692102389e+00 2.7563152351150206e+00 0 0 0
392 14 2 -2.9893270295401346e+00 -6.1688201823342270e+00 2.1505345542177046e+00 0 0 0
35 2 2 -4.7917918048772599e+00 -6.5281672372775983e+00 3.7527505766723306e+00 0 0 0
334 12 2 -5.0678414741300140e+00 -5.1654100242923340e+00 2.6426170746492224e+00 0 0 0
394 14 2 -3.4099744969862487e+00 -6.5300572916126747e+00 3.6304512519796805e+00 0 0 0
364 13 2 -3.3955813691002725e+00 -4.5710707608085910e+00 3.3225038852171123e+00 0 0 0
362 13 2 -3.9886450034961651e+00 -4.5480941988596104e+00 2.2369113845235948e+00 0 0 0
391 14 1 -2.7562500000000001e+00 -5.3044000000000002e+00 1.6875024916199077e+00 0 0 0
395 14 2 -2.5009332437661693e+00 -6.6653851635044825e+00 3.3964179688649274e+00 0 0 0
396 14 2 -1.7562204591973412e+00 -6.0151945331405576e+00 2.9891457622937061e+00 0 0 0
397 14 2 -1.3961079621147168e+00 -5.1034110993983122e+00 3.1555335976194288e+00 0 0 0
454 16 2 -5.6436059311978670e-01 -5.7924298069333853e+00 3.3356757962266097e+00 0 0 0
301 11 1 -7.4812500000000002e+00 -3.7888500000000001e+00 1.6875024916199077e+00 0 0 0
632 22 2 -5.4968511586011841e+00 -2.9762463458434847e+00 2.0405406886907911e+00 0 0 0
305 11 2 -7.8445193845243688e+00 -2.8187798757825502e+00 3.3521390737699321e+00 0 0 0
306 11 2 -7.1004607282956878e+00 -2.7714826047423893e+00 2.8589078035642328e+00 0 0 0
307 11 2 -6.3209451392607461e+00 -2.4307717190443081e+00 3.3630188920403170e+00 0 0 0
361 13 1 -4.3312499999999998e+00 -3.7888500000000001e+00 1.6875024916199077e+00 0 0 0
333 12 2 -5.1433336111927632e+00 -4.5282323203035508e+00 1.8921620840832920e+00 0 0 0
363 13 2 -4.3335031194812714e+00 -4.5144420066996256e+00 3.1151708976847625e+00 0 0 0
692 24 2 -3.5239914125195582e+00 -2.3182590595748063e+00 2.3889658780842691e+00 0 0 0
693 24 2 -4.0991527674818000e+00 -2.9591146233511951e+00 2.9391510964699261e+00 0 0 0
634 22 2 -5.2089967795580510e+00 -2.6520389172624204e+00 3.2628184855747082e+00 0 0 0
635 22 2 -5.2029629559634598e+00 -3.5941136266303175e+00 3.1024389301978172e+00 0 0 0
421 15 1 -1.1812499999999999e+00 -3.7888500000000001e+00 1.6875024916199077e+00 0 0 0
398 14 2 -1.7403013410813273e+00 -4.2531657534944980e+00 3.7943165083431127e+00 0 0 0
422 15 2 -1.2030957223769350e+00 -4.0270883935432034e+00 2.6647719740748270e+00 0 0 0
423 15 2 -6.3417383364577617e-01 -3.2464913983872634e+00 3.0341694917317161e+00 0 0 0
424 15 2 -1.0385508531501417e+00 -2.6286299510133548e+00 3.7000809800144614e+00 0 0 0
631 22 1 -5.9062500000000000e+00 -2.2733099999999999e+00 1.6875024916199077e+00 0 0 0
601 21 1 -7.4812500000000002e+00 -7.5777000000000005e-01 1.6875024916199077e+00 0 0 0
304 11 2 -7.7915558433604915e+00 -1.8341646327480963e+00 3.1805942221380028e+00 0 0 0
308 11 2 -6.8081582003417287e+00 -1.7396029369269428e+00 3.7749655572108276e+00 0 0 0
603 21 2 -7.3556768488326636e+00 -6.0692068136566568e-01 3.4757394055664799e+00 0 0 0
602 21 2 -7.5552934404961940e+00 -3.7465607150479674e-01 2.5590110423729642e+00 0 0 0
661 23 1 -4.3312499999999998e+00 -7.5777000000000005e-01 1.6875024916199077e+00 0 0 0
662 23 2 -4.2341576696660468e+00 -4.3075752176281923e-01 2.5907869891124919e+00 0 0 0
694 24 2 -4.1250183549413277e+00 -2.1738815276057153e+00 3.5080264875246590e+00 0 0 0
633 22 2 -5.0359522382048381e+00 -2.1890053419459896e+00 2.4872052063900369e+00 0 0 0
663 23 2 -5.0399528523389137e+00 -5.8875372573221230e-01 3.1557977979213354e+00 0 0 0
691 24 1 -2.7562500000000001e+00 -2.2733099999999999e+00 1.6875024916199077e+00 0 0 0
721 25 1 -1.1812499999999999e+00 -7.5777000000000005e-01 1.6875024916199077e+00 0 0 0
722 25 2 -1.0174869845260541e+00 -1.5502246860848692e+00 2.3218039955570737e+00 0 0 0
723 25 2 -5.7694682201982705e-01 -1.2258616524359800e+00 3.0062907930701099e+00 0 0 0
1055 36 2 -9.7309617822520178e-01 -2.6562611005884967e-01 3.1284240561826029e+00 0 0 0
252 9 2 -6.2369132481293637e+00 -8.8704722900831570e+00 4.6460641423574360e+00 1 0 0
251 9 2 -7.1263418256657989e+00 -8.8745507103865400e+00 4.7006007272885295e+00 1 0 0
253 9 2 -6.3817367723406875e+00 -7.8602210003016708e+00 4.7126157554012762e+00 1 0 0
254 9 2 -6.2897188467999561e+00 -7.5257721615137729e+00 5.6917812783531518e+00 1 0 0
64 3 2 -4.3095895696176925e+00 -7.4592021877820356e+00 4.0134765709723643e+00 0 0 0
65 3 2 -4.4640885645907344e+00 -7.8878312996904452e+00 4.9014484505189424e+00 0 0 0
36 2 2 -5.1565011795607880e+00 -7.0558079712794157e+00 4.4662679441941435e+00 0 0 0
66 3 2 -4.5947162035768816e+00 -8.7043851417764433e+00 5.4447416602712222e+00 0 0 0
130 5 2 -3.3329753212839637e+00 -7.9141647959394374e+00 5.8532834773657516e+00 0 0 0
94 4 2 -1.8755730656864984e+00 -9.0485111831903460e+00 4.0036403853041831e+00 0 0 0
127 5 2 -1.8333468557057297e+00 -7.4493279667751304e+00 4.5376378761564071e+00 0 0 0
188 7 2 -3.4896870182773571e-01 -8.3864842722879196e+00 5.9089261452669763e+00 0 0 0
129 5 2 -2.7428325331760806e+00 -8.1749431931377892e+00 5.1521465390498760e+00 0 0 0
128 5 2 -1.8903449083987816e+00 -8.4434770004954256e+00 4.9404302836306631e+00 0 0 0
7 1 2 -7.5318057553383202e+00 -5.7399603438432178e+00 5.5759074921170573e+00 0 0 0
5 1 2 -6.3925219380140419e+00 -6.1289952556398610e+00 4.2403361849549182e+00 0 0 0
337 12 2 -6.2727449123420085e+00 -4.7118670436704342e+00 4.1656471906519164e+00 0 0 0
338 12 2 -6.0254169899227996e+00 -4.7719401501741912e+00 5.0687412423084224e+00 0 0 0
6 1 2 -7.2734153245458346e+00 -6.1561426830443908e+00 4.6574352323087869e+00 0 0 0
365 13 2 -3.6474973910173829e+00 -4.6477100960638014e+00 4.2287690391209249e+00 0 0 0
368 13 2 -3.4544327435719855e+00 -5.8626445423613607e+00 5.3515229799334758e+00 0 0 0
37 2 2 -5.0617626186415734e+00 -6.6666484526613958e+00 5.3483752048267812e+00 0 0 0
38 2 2 -4.3504279985778318e+00 -6.2159141260540922e+00 5.6683730167160267e+00 0 0 0
366 13 2 -4.2597136780752756e+00 -5.2908420732746357e+00 3.9366386153159851e+00 0 0 0
367 13 2 -3.5065690697125684e+00 -5.7610652386280714e+00 4.3441802389404582e+00 0 0 0
455 16 2 -1.1673067213641783e+00 -6.1640821952424583e+00 4.0416197244172860e+00 0 0 0
369 13 2 -2.5516790519231356e+00 -6.2878929717593905e+00 5.6260870316868772e+00 0 0 0
457 16 2 -1.1098724031016700e+00 -6.7538412612247889e+00 5.3752115715123274e+00 0 0 0
456 16 2 -1.7509142383194223e+00 -6.2482323845145471e+00 4.8203387596439793e+00 0 0 0
402 14 2 -7.8149787811008820e-01 -5.4966820421093914e+00 5.9625982988276736e+00 0 0 0
401 14 2 -1.2570335650151467e+00 -4.7200326596997284e+00 5.6249866563337667e+00 0 0 0
311 11 2 -7.0661052043514836e+00 -2.4949492522866286e+00 5.1794226607670950e+00 0 0 0
636 22 2 -5.4135316990475815e+00 -3.4186781598789975e+00 3.9878536082677996e+00 0 0 0
577 20 2 -7.4553024647879278e+00 -4.2142781251833759e+00 4.7339741286098240e+00 1 0 0
339 12 2 -6.2066107560942312e+00 -3.9397574976612955e+00 5.5868231538402480e+00 0 0 0
578 20 2 -7.5811443826538287e+00 -4.3450450315719165e+00 5.6550814753000349e+00 1 0 0
1286 43 2 -6.1656931410290872e+00 -2.4644628641985626e+00 5.9834190269388712e+00 0 0 0
312 11 2 -7.7392368023173939e+00 -2.2973778378073311e+00 5.8466571674665460e+00 0 0 0
310 11 2 -7.8363163475670490e+00 -2.3673643207524444e+00 4.7449988134083263e+00 0 0 0
695 24 2 -3.7234566780604985e+00 -2.7777612580640918e+00 4.0976389582489583e+00 0 0 0
696 24 2 -3.4336633650100050e+00 -3.5202540492039982e+00 4.6493903545522590e+00 0 0 0
637 22 2 -5.0197159332401817e+00 -2.7843870383664711e+00 4.5316707113304888e+00 0 0 0
1289 43 2 -5.2725099848656853e+00 -3.8033692339331040e+00 4.9235731998649195e+00 0 0 0
1288 43 2 -5.0977760718142013e+00 -3.7135661478407118e+00 5.8801758467114933e+00 0 0 0
1290 43 3 -4.9152080042950530e+00 -4.4261460547061899e+00 4.2864289971944638e+00 0 0 0
697 24 2 -3.2940911964178401e+00 -4.2069917856202714e+00 5.2665028280071233e+00 0 0 0
698 24 2 -3.9543652432554737e+00 -4.1283349683032737e+00 6.0494790345145901e+00 0 0 0
399 14 2 -1.2760298880643797e+00 -3.6126389987653509e+00 4.3349042699827889e+00 0 0 0
400 14 2 -1.0722624544149806e+00 -3.7544314097749196e+00 5.3193918444150317e+00 0 0 0
937 32 2 -6.3579842628002261e+00 -1.0403456324637500e-01 5.2948176969430802e+00 0 0 0
605 21 2 -7.8582700572669468e+00 -7.0510241394588591e-01 4.7777268290507955e+00 0 0 0
309 11 2 -7.2408498743720386e+00 -1.5714730861324684e+00 4.6494415685884842e+00 0 0 0
604 21 2 -7.0587013278730257e+00 -2.4408291376430022e-01 4.2608672430783905e+00 0 0 0
1285 43 2 -5.4782041968778463e+00 -1.8379607783102991e+00 5.6041999855770221e+00 0 0 0
638 22 2 -4.6160829077097247e+00 -2.1981494730924500e+00 5.1884301057918716e+00 0 0 0
664 23 2 -4.5497764601124455e+00 -2.2600042031349191e-01 3.8462085738169565e+00 0 0 0
1057 36 2 -2.2292493341743964e+00 -6.6854201698288263e-01 4.3106539646146009e+00 0 0 0
1056 36 2 -1.3467309098114644e+00 -6.8873127928065137e-01 3.8705513329725272e+00 0 0 0
724 25 2 -6.4378360298594905e-01 -1.6076403207313203e+00 3.8445668774138686e+00 0 0 0
425 15 2 -1.7323082621360337e+00 -2.2600770972592330e+00 4.1645342132018293e+00 0 0 0
725 25 2 -5.5871192617498433e-01 -2.1483632288314691e+00 4.6156258033163553e+00 0 0 0
426 15 2 -2.0099407706994326e+00 -1.7597403199997745e+00 5.0418951931561118e+00 0 0 0
427 15 2 -2.7104055915426168e+00 -1.6537644485568834e+00 5.7412024077300146e+00 0 0 0
728 25 2 -5.5381513878217714e-01 -1.5613980014652413e+00 5.9619932411985985e+00 0 0 0
729 25 2 -1.3285194001392231e+00 -2.1947153915020179e+00 5.9363688618887664e+00 0 0 0
1483 50 2 -6.9186462154252455e+00 -8.7619214344691727e+00 6.6415502446435850e+00 1 1 0
11 1 2 -7.0755411090218372e+00 -7.9726092776171740e+00 7.6582887497273955e+00 0 0 0
12 1 2 -7.6638251094838754e+00 -7.1954537604331543e+00 7.8781543856355229e+00 0 0 0
255 9 2 -5.9432107502711933e+00 -7.7215817255107826e+00 6.6045586287737139e+00 1 0 0
256 9 2 -5.7245573006629638e+00 -7.8241779720587212e+00 7.5162836270894511e+00 1 0 0
1484 50 2 -7.5383994563742132e+00 -9.0200903375917676e+00 7.3386176539233050e+00 1 1 0
10 1 2 -6.8524670980816591e+00 -7.1177994407802680e+00 7.1671215028478272e+00 0 0 0
9 1 2 -7.4536707757224052e+00 -7.1143386772141586e+00 6.4032940827330878e+00 0 0 0
133 5 2 -3.8021013915547202e+00 -9.0399995773530648e+00 7.6491854256415781e+00 0 0 0
67 3 2 -4.7076734272373635e+00 -8.8519630286154634e+00 6.3429616570224230e+00 0 0 0
257 9 2 -5.1313049380738427e+00 -7.3529855719496258e+00 7.9995501546946626e+00 1 0 0
131 5 2 -3.1423954243264354e+00 -8.0674496804809497e+00 6.7594211338548877e+00 0 0 0
132 5 2 -3.2056218470898630e+00 -8.3509649012686413e+00 7.6450026959357373e+00 0 0 0
41 2 2 -3.4232520474970145e+00 -7.0046858533388763e+00 7.1163699681274162e+00 0 0 0
370 13 2 -2.5050872156277491e+00 -7.1156840093131031e+00 6.1270989433066587e+00 0 0 0
99 4 2 -2.0397710041200292e+00 -9.0127023945748093e+00 6.9937874537664602e+00 0 0 0
1670 56 2 -8.5698615167967673e-01 -8.1008876088907513e+00 8.3532526020613460e+00 0 1 0
1669 56 2 -5.3330565602578250e-01 -8.1195178482344517e+00 7.4346059866523504e+00 0 1 0
8 1 2 -7.7758263151613747e+00 -6.1480218947373029e+00 6.3691691510190376e+00 0 0 0
579 20 2 -7.3993627255244405e+00 -4.8651063272849893e+00 6.4572594359510553e+00 1 0 0
580 20 2 -7.0076551335325732e+00 -4.9976549821752121e+00 7.3288004546053083e+00 1 0 0
581 20 2 -6.9631764839775734e+00 -5.5904162791351775e+00 8.1684870354676793e+00 1 0 0
40 2 2 -4.1967071644505598e+00 -6.4322584339029714e+00 7.4323126777596187e+00 0 0 0
39 2 2 -4.5782200644269073e+00 -6.2432703264492728e+00 6.5746128519191629e+00 0 0 0
371 13 2 -2.9027129447728925e+00 -6.3537153498812033e+00 6.5899449194788717e+00 0 0 0
699 24 2 -4.0450125564702013e+00 -4.7625265454082282e+00 6.7835992003833399e+00 0 0 0
700 24 2 -4.5632926710221664e+00 -4.5645882105076776e+00 7.5863130851725185e+00 0 0 0
43 2 2 -3.0654167267590640e+00 -6.1543359307960985e+00 8.3170988369236465e+00 0 0 0
701 24 2 -3.8270547920862108e+00 -5.0858252831635991e+00 7.8693340891004402e+00 0 0 0
42 2 2 -2.6697932335111987e+00 -6.7194400252906847e+00 7.6280321795888195e+00 0 0 0
459 16 2 -6.2796590128503849e-01 -6.5770120132740804e+00 7.1323579572036291e+00 0 0 0
458 16 2 -1.1431396080048684e+00 -6.6702836420718778e+00 6.3194874603348659e+00 0 0 0
460 16 2 -6.3472470842674578e-01 -5.8724234331856433e+00 7.7421302078026812e+00 0 0 0
372 13 2 -2.3871035211063454e+00 -5.6023350093791793e+00 7.0856637584985327e+00 0 0 0
373 13 2 -2.5103663133183693e+00 -4.6393026302051403e+00 7.2820531450733021e+00 0 0 0
340 12 2 -6.4850748919681314e+00 -3.9473822942741266e+00 6.5446053152645964e+00 0 0 0
1287 43 2 -5.5609292056227124e+00 -2.9942832317717163e+00 6.4735817235810131e+00 0 0 0
341 12 2 -7.3379604040942743e+00 -3.9742565483118772e+00 6.9641902597988654e+00 0 0 0
343 12 2 -6.4133680265542683e+00 -3.6805384459356696e+00 7.7110271926779976e+00 0 0 0
342 12 2 -7.4395681909505269e+00 -3.3388835935943586e+00 7.7138111838504484e+00 0 0 0
374 13 2 -2.9082738676758120e+00 -4.1659831731388604e+00 7.9993007775831400e+00 0 0 0
947 32 2 -5.1064079857241333e+00 -2.3612688779412059e+00 8.3548471456285593e+00 0 0 0
732 25 2 -1.2072074941957669e+00 -2.8025353811641418e+00 7.9004200943132714e+00 0 0 0
405 14 2 -7.0717744797190907e-01 -4.4288824963129230e+00 7.5932294140171939e+00 0 0 0
1281 43 2 -5.5697718360738619e+00 -1.3200682329445150e+00 7.9732070052763016e+00 0 0 0
939 32 2 -6.4177959137373666e+00 -6.9551038416335687e-01 6.8590381513476002e+00 0 0 0
1284 43 2 -5.8817538706516883e+00 -1.3304155413819754e+00 6.2772628237615953e+00 0 0 0
938 32 2 -6.6652634823742201e+00 -5.1626071247861186e-02 6.1962288084167856e+00 0 0 0
1280 43 2 -5.7578821242115277e+00 -3.0233437854555245e-01 8.0473417951991753e+00 0 0 0
941 32 2 -7.7531871636652596e+00 -4.3185148486108182e-01 7.9110783821445345e+00 0 0 0
940 32 2 -7.0614610046672857e+00 -7.5084356375540118e-02 7.2971897809608395e+00 0 0 0
640 22 2 -4.8238380998174630e+00 -1.9891863747063210e+00 6.9262020567353693e+00 0 0 0
639 22 2 -4.2897077286181533e+00 -2.1108020483294441e+00 6.1403688982982905e+00 0 0 0
641 22 2 -4.1506932562907854e+00 -1.7320768084182014e+00 7.6061638054896186e+00 0 0 0
668 23 2 -3.9780231018640841e+00 -7.3691265567686759e-01 6.1074563708677481e+00 0 0 0
1282 43 2 -4.9370841089804989e+00 -8.3215147974412984e-01 7.3848985528026727e+00 0 0 0
642 22 2 -3.7595948917747020e+00 -1.0133349714050837e+00 8.1329203834961419e+00 0 0 0
1283 43 2 -4.9492260094689779e+00 -1.1047595406878192e+00 6.4712537246734376e+00 0 0 0
429 15 2 -1.9981873426855317e+00 -1.0561888962253370e+00 7.4912889159896050e+00 0 0 0
430 15 2 -1.6569444921486181e+00 -2.9424293219509345e-01 7.9996913934127729e+00 0 0 0
1063 36 2 -1.0773416012725243e+00 -8.7912966054850161e-02 6.6230896897688547e+00 0 0 0
730 25 2 -1.0881597579408255e+00 -2.2685221667020641e+00 6.8346253754675530e+00 0 0 0
428 15 2 -2.2746540753555862e+00 -1.3682613062252584e+00 6.5538085391135903e+00 0 0 0
1064 36 2 -8.9986429591004202e-01 -6.8189964489591193e-01 7.4336860561016653e+00 0 0 0
731 25 2 -5.4420624218407543e-01 -2.0739609297456840e+00 7.6352006675903565e+00 0 0 0
1588 53 2 -7.5407807067113657e+00 -9.0359116243653173e+00 9.6384486617471374e+00 0 1 0
260 9 2 -5.4924401590455707e+00 -8.2723019915829532e+00 1.0588099424159200e+01 1 0 0
15 1 2 -7.2567474242611532e+00 -7.9915008306863831e+00 9.9634681756493642e+00 0 0 0
13 1 2 -7.2379105880892940e+00 -7.4666589159848300e+00 8.6144084890689019e+00 0 0 0
14 1 2 -6.8132174734157767e+00 -8.1698964678227721e+00 9.0694350592067092e+00 0 0 0
258 9 2 -5.4549269245396941e+00 -7.6286643491827633e+00 8.8595286632622123e+00 1 0 0
259 9 2 -5.3231907663009554e+00 -7.8222629728643831e+00 9.7793496980863992e+00 1 0 0
1676 56 2 -3.4792928883877288e+00 -6.9249878084792913e+00 9.9192782105976409e+00 0 1 0
1675 56 2 -3.1564211048840702e+00 -7.1225857758717677e+00 9.0309668855929655e+00 0 1 0
1635 55 2 -3.2368496262740254e+00 -8.9053365987129158e+00 1.0188819719370045e+01 0 1 0
1673 56 2 -2.3454709247128731e+00 -8.1420935786403117e+00 8.8834843139516035e+00 0 1 0
1674 56 2 -2.5009779407547441e+00 -7.3406509816233827e+00 8.4026822571365063e+00 0 1 0
1671 56 2 -6.1262350554319989e-01 -8.2950178729910906e+00 9.2448885412134949e+00 0 1 0
1672 56 2 -1.5652423423526118e+00 -8.1427713372301209e+00 9.3471363306158093e+00 0 1 0
858 29 2 -7.2545759247512853e+00 -6.4990984594142684e+00 9.8102172421020235e+00 1 0 0
857 29 2 -7.4775882850680322e+00 -5.5189192520924140e+00 9.7554830660014868e+00 1 0 0
584 20 2 -5.3765278875164730e+00 -6.1499320001621429e+00 9.8084667998574258e+00 1 0 0
583 20 2 -5.6048302791864959e+00 -6.3007563798364794e+00 8.8469913481310360e+00 1 0 0
582 20 2 -6.1009420023520926e+00 -5.4996529748070122e+00 8.6943856780650624e+00 1 0 0
856 29 2 -7.7061581925009461e+00 -4.5947216168486653e+00 9.8716334167608490e+00 1 0 0
854 29 2 -7.8165725609446799e+00 -5.1248310206424819e+00 8.8667874864171168e+00 1 0 0
585 20 2 -6.0399790802284956e+00 -6.7317975383693733e+00 1.0115333476746624e+01 1 0 0
704 24 2 -4.6419752172148216e+00 -5.0840776871966282e+00 1.0108938373979546e+01 0 0 0
46 2 2 -3.3191341122254494e+00 -5.1951185257888124e+00 1.0346147124991411e+01 0 0 0
703 24 2 -4.2669001161024891e+00 -5.7772494088268518e+00 9.5262689667798721e+00 0 0 0
702 24 2 -4.0052720860505300e+00 -5.6426951441187265e+00 8.6473397537570520e+00 0 0 0
45 2 2 -2.8939634825156264e+00 -4.8205463113262539e+00 9.5636853057181224e+00 0 0 0
464 16 2 -1.3053890558505572e+00 -5.9712814004925567e+00 1.0564247927609184e+01 0 0 0
462 16 2 -7.0806571348764202e-01 -6.3809505860758291e+00 9.4250247757155865e+00 0 0 0
463 16 2 -1.4364739589716382e+00 -6.7422698836618977e+00 9.9017574760144775e+00 0 0 0
44 2 2 -2.6775479870302314e+00 -5.3642396861048951e+00 8.7397492586870396e+00 0 0 0
408 14 2 -1.8052325538087715e+00 -5.1725812772112514e+00 9.7365798052856736e+00 0 0 0
407 14 2 -1.0260989148435378e+00 -5.3104463455299857e+00 9.1602392955001299e+00 0 0 0
406 14 2 -5.5016796832718640e-01 -4.6792398810124700e+00 8.5928696617323634e+00 0 0 0
1677 56 2 -2.6473716727284016e+00 -6.6448627681124499e+00 1.0242352583784722e+01 0 1 0
346 12 2 -6.7125664116349197e+00 -3.1501160235230374e+00 9.8261291805269959e+00 0 0 0
345 12 2 -6.5901846520151857e+00 -3.2722293644601863e+00 8.9295415164263421e+00 0 0 0
855 29 2 -7.6965278219824373e+00 -4.1860937260878233e+00 8.9945031452804294e+00 1 0 0
344 12 2 -6.4233967871098656e+00 -4.2018702189779509e+00 8.5016067639615756e+00 0 0 0
948 32 2 -5.6032899910746208e+00 -3.0398803436271793e+00 8.7919520996454814e+00 0 0 0
953 32 2 -5.5474984090244517e+00 -2.8153816791655268e+00 1.0294222248635368e+01 0 0 0
949 32 2 -4.8533821865711477e+00 -2.8287435852074645e+00 9.4057644920187276e+00 0 0 0
375 13 2 -3.0275243273293970e+00 -3.5347506936838644e+00 8.6263159810572567e+00 0 0 0
376 13 2 -3.4566752504564793e+00 -3.3230112043042213e+00 9.5008855866049338e+00 0 0 0
377 13 2 -3.6383043967356574e+00 -3.2509501277891504e+00 1.0459301716330959e+01 0 0 0
952 32 2 -4.4723520109620125e+00 -2.7889232447292622e+00 1.0487339678323949e+01 0 0 0
378 13 2 -3.3437013291917252e+00 -4.1366493453475286e+00 1.0254206518098613e+01 0 0 0
409 14 2 -1.4150770459429667e+00 -4.4825922337380115e+00 1.0297118747609188e+01 0 0 0
733 25 2 -7.4249984167342076e-01 -2.5345350007520389e+00 8.7580761564780332e+00 0 0 0
648 22 2 -2.8450378346565253e+00 -2.3302019639945124e+00 9.2408866902344737e+00 0 0 0
944 32 2 -7.1098982351160753e+00 -1.3819079452087015e+00 9.8835209224381870e+00 0 0 0
946 32 2 -5.8987967252891131e+00 -2.0148100549036587e+00 8.7601245178250711e+00 0 0 0
942 32 2 -7.7490004788887630e+00 -5.4932621760975708e-01 8.8921041872203013e+00 0 0 0
943 32 2 -7.2582516580815017e+00 -4.6858479999211267e-01 9.7303836970843030e+00 0 0 0
945 32 2 -6.2403155666205476e+00 -1.6467584378164504e+00 9.5693539593448520e+00 0 0 0
954 32 2 -5.3779200068865389e+00 -1.7657792809222590e+00 1.0457726058044431e+01 0 0 0
951 32 2 -4.1021244598871309e+00 -1.9864629232923992e+00 1.0180022257457441e+01 0 0 0
647 22 2 -2.8590710484531354e+00 -1.5303528414003547e+00 9.8602978070749536e+00 0 0 0
646 22 2 -3.5729641620076236e+00 -9.6356049117660880e-01 9.6092536127028669e+00 0 0 0
950 32 2 -4.7431996235526936e+00 -1.9241286450044968e+00 9.5059038770436821e+00 0 0 0
645 22 2 -3.0453458467608794e+00 -1.8663102519873639e-01 9.5449795374477304e+00 0 0 0
643 22 2 -4.2167885187348491e+00 -3.0305759220759154e-01 8.5630046131484274e+00 0 0 0
1069 36 2 -7.0565747863627615e-01 -1.2453933690006262e+00 1.0596707050039306e+01 0 0 0
1067 36 2 -8.6010036194996609e-01 -1.5690230996346992e+00 9.5142751583687559e+00 0 0 0
650 22 2 -1.7278016794972602e+00 -1.8038249826824613e+00 9.8449243771211901e+00 0 0 0
649 22 2 -2.1796699308454928e+00 -1.7065662856140731e+00 9.0279039778602552e+00 0 0 0