LAMMPS data file via write_data, version 31 Mar 2017, timestep = 5000000

2101 atoms
5 atom types
1740 bonds
1 bond types

-7.8750000000000000e+00 7.8750000000000000e+00 xlo xhi
-9.0932499999999994e+00 9.0932499999999994e+00 ylo yhi
-3.0000000000000000e+00 4.0000000000000000e+01 zlo zhi

Masses

1 1
2 1
3 1
4 1
5 1

Pair Coeffs # lj/expand

1 1 1 0
2 1 1 0
3 1 1 0
4 0 0 0
5 1 1 3

Bond Coeffs # fene

1 30 1.5 1 1

Atoms # bond

1801 61 4 -7.8750000000000000e+00 -9.0932499999999994e+00 0.0000000000000000e+00 0 0 0
1802 62 4 -7.8750000000000000e+00 -7.2746000000000004e+00 0.0000000000000000e+00 0 0 0
1811 71 4 -7.3499999999999996e+00 -8.1839300000000001e+00 0.0000000000000000e+00 0 0 0
1821 81 4 -6.8250000000000002e+00 -9.0932499999999994e+00 0.0000000000000000e+00 0 0 0
1822 82 4 -6.8250000000000002e+00 -7.2746000000000004e+00 0.0000000000000000e+00 0 0 0
1831 91 4 -6.2999999999999998e+00 -8.1839300000000001e+00 0.0000000000000000e+00 0 0 0
1841 101 4 -5.7750000000000004e+00 -9.0932499999999994e+00 0.0000000000000000e+00 0 0 0
1842 102 4 -5.7750000000000004e+00 -7.2746000000000004e+00 0.0000000000000000e+00 0 0 0
1851 111 4 -5.2500000000000000e+00 -8.1839300000000001e+00 0.0000000000000000e+00 0 0 0
1861 121 4 -4.7249999999999996e+00 -9.0932499999999994e+00 0.0000000000000000e+00 0 0 0
1862 122 4 -4.7249999999999996e+00 -7.2746000000000004e+00 0.0000000000000000e+00 0 0 0
1871 131 4 -4.2000000000000002e+00 -8.1839300000000001e+00 0.0000000000000000e+00 0 0 0
1881 141 4 -3.6749999999999998e+00 -9.0932499999999994e+00 0.0000000000000000e+00 0 0 0
1882 142 4 -3.6749999999999998e+00 -7.2746000000000004e+00 0.0000000000000000e+00 0 0 0
1891 151 4 -3.1499999999999999e+00 -8.1839300000000001e+00 0.0000000000000000e+00 0 0 0
1901 161 4 -2.6250000000000000e+00 -9.0932499999999994e+00 0.0000000000000000e+00 0 0 0
1902 162 4 -2.6250000000000000e+00 -7.2746000000000004e+00 0.0000000000000000e+00 0 0 0
1911 171 4 -2.1000000000000001e+00 -8.1839300000000001e+00 0.0000000000000000e+00 0 0 0
1921 181 4 -1.5750000000000000e+00 -9.0932499999999994e+00 0.0000000000000000e+00 0 0 0
1922 182 4 -1.5750000000000000e+00 -7.2746000000000004e+00 0.0000000000000000e+00 0 0 0
1931 191 4 -1.0500000000000000e+00 -8.1839300000000001e+00 0.0000000000000000e+00 0 0 0
1942 202 4 -5.2500000000000002e-01 -7.2746000000000004e+00 0.0000000000000000e+00 0 0 0
1941 201 4 -5.2500000000000002e-01 -9.0932499999999994e+00 0.0000000000000000e+00 0 0 0
1951 211 4 0.0000000000000000e+00 -8.1839300000000001e+00 0.0000000000000000e+00 0 0 0
1812 72 4 -7.3499999999999996e+00 -6.3652800000000003e+00 0.0000000000000000e+00 0 0 0
1832 92 4 -6.2999999999999998e+00 -6.3652800000000003e+00 0.0000000000000000e+00 0 0 0
1803 63 4 -7.8750000000000000e+00 -5.4559499999999996e+00 0.0000000000000000e+00 0 0 0
1823 83 4 -6.8250000000000002e+00 -5.4559499999999996e+00 0.0000000000000000e+00 0 0 0
1843 103 4 -5.7750000000000004e+00 -5.4559499999999996e+00 0.0000000000000000e+00 0 0 0
1852 112 4 -5.2500000000000000e+00 -6.3652800000000003e+00 0.0000000000000000e+00 0 0 0
1813 73 4 -7.3499999999999996e+00 -4.5466300000000004e+00 0.0000000000000000e+00 0 0 0
1833 93 4 -6.2999999999999998e+00 -4.5466300000000004e+00 0.0000000000000000e+00 0 0 0
1853 113 4 -5.2500000000000000e+00 -4.5466300000000004e+00 0.0000000000000000e+00 0 0 0
1872 132 4 -4.2000000000000002e+00 -6.3652800000000003e+00 0.0000000000000000e+00 0 0 0
1892 152 4 -3.1499999999999999e+00 -6.3652800000000003e+00 0.0000000000000000e+00 0 0 0
1863 123 4 -4.7249999999999996e+00 -5.4559499999999996e+00 0.0000000000000000e+00 0 0 0
1883 143 4 -3.6749999999999998e+00 -5.4559499999999996e+00 0.0000000000000000e+00 0 0 0
1903 163 4 -2.6250000000000000e+00 -5.4559499999999996e+00 0.0000000000000000e+00 0 0 0
1873 133 4 -4.2000000000000002e+00 -4.5466300000000004e+00 0.0000000000000000e+00 0 0 0
1893 153 4 -3.1499999999999999e+00 -4.5466300000000004e+00 0.0000000000000000e+00 0 0 0
62 3 2 -3.7757150766730505e+00 -6.5976954424770300e+00 9.3848463060301990e-01 0 0 0
63 3 2 -4.2931576898923201e+00 -5.7646289485646207e+00 8.7506930308674447e-01 0 0 0
1912 172 4 -2.1000000000000001e+00 -6.3652800000000003e+00 0.0000000000000000e+00 0 0 0
1932 192 4 -1.0500000000000000e+00 -6.3652800000000003e+00 0.0000000000000000e+00 0 0 0
1923 183 4 -1.5750000000000000e+00 -5.4559499999999996e+00 0.0000000000000000e+00 0 0 0
1943 203 4 -5.2500000000000002e-01 -5.4559499999999996e+00 0.0000000000000000e+00 0 0 0
1913 173 4 -2.1000000000000001e+00 -4.5466300000000004e+00 0.0000000000000000e+00 0 0 0
1933 193 4 -1.0500000000000000e+00 -4.5466300000000004e+00 0.0000000000000000e+00 0 0 0
1952 212 4 0.0000000000000000e+00 -6.3652800000000003e+00 0.0000000000000000e+00 0 0 0
1953 213 4 0.0000000000000000e+00 -4.5466300000000004e+00 0.0000000000000000e+00 0 0 0
1804 64 4 -7.8750000000000000e+00 -3.6373000000000002e+00 0.0000000000000000e+00 0 0 0
1824 84 4 -6.8250000000000002e+00 -3.6373000000000002e+00 0.0000000000000000e+00 0 0 0
1844 104 4 -5.7750000000000004e+00 -3.6373000000000002e+00 0.0000000000000000e+00 0 0 0
1814 74 4 -7.3499999999999996e+00 -2.7279800000000001e+00 0.0000000000000000e+00 0 0 0
1834 94 4 -6.2999999999999998e+00 -2.7279800000000001e+00 0.0000000000000000e+00 0 0 0
1854 114 4 -5.2500000000000000e+00 -2.7279800000000001e+00 0.0000000000000000e+00 0 0 0
1864 124 4 -4.7249999999999996e+00 -3.6373000000000002e+00 0.0000000000000000e+00 0 0 0
1884 144 4 -3.6749999999999998e+00 -3.6373000000000002e+00 0.0000000000000000e+00 0 0 0
1874 134 4 -4.2000000000000002e+00 -2.7279800000000001e+00 0.0000000000000000e+00 0 0 0
1894 154 4 -3.1499999999999999e+00 -2.7279800000000001e+00 0.0000000000000000e+00 0 0 0
1904 164 4 -2.6250000000000000e+00 -3.6373000000000002e+00 0.0000000000000000e+00 0 0 0
1924 184 4 -1.5750000000000000e+00 -3.6373000000000002e+00 0.0000000000000000e+00 0 0 0
1944 204 4 -5.2500000000000002e-01 -3.6373000000000002e+00 0.0000000000000000e+00 0 0 0
1914 174 4 -2.1000000000000001e+00 -2.7279800000000001e+00 0.0000000000000000e+00 0 0 0
1934 194 4 -1.0500000000000000e+00 -2.7279800000000001e+00 0.0000000000000000e+00 0 0 0
1954 214 4 0.0000000000000000e+00 -2.7279800000000001e+00 0.0000000000000000e+00 0 0 0
1805 65 4 -7.8750000000000000e+00 -1.8186500000000001e+00 0.0000000000000000e+00 0 0 0
1815 75 4 -7.3499999999999996e+00 -9.0932999999999997e-01 0.0000000000000000e+00 0 0 0
1825 85 4 -6.8250000000000002e+00 -1.8186500000000001e+00 0.0000000000000000e+00 0 0 0
1835 95 4 -6.2999999999999998e+00 -9.0932999999999997e-01 0.0000000000000000e+00 0 0 0
1845 105 4 -5.7750000000000004e+00 -1.8186500000000001e+00 0.0000000000000000e+00 0 0 0
1855 115 4 -5.2500000000000000e+00 -9.0932999999999997e-01 0.0000000000000000e+00 0 0 0
1865 125 4 -4.7249999999999996e+00 -1.8186500000000001e+00 0.0000000000000000e+00 0 0 0
1875 135 4 -4.2000000000000002e+00 -9.0932999999999997e-01 0.0000000000000000e+00 0 0 0
1885 145 4 -3.6749999999999998e+00 -1.8186500000000001e+00 0.0000000000000000e+00 0 0 0
1895 155 4 -3.1499999999999999e+00 -9.0932999999999997e-01 0.0000000000000000e+00 0 0 0
1905 165 4 -2.6250000000000000e+00 -1.8186500000000001e+00 0.0000000000000000e+00 0 0 0
1915 175 4 -2.1000000000000001e+00 -9.0932999999999997e-01 0.0000000000000000e+00 0 0 0
1925 185 4 -1.5750000000000000e+00 -1.8186500000000001e+00 0.0000000000000000e+00 0 0 0
1935 195 4 -1.0500000000000000e+00 -9.0932999999999997e-01 0.0000000000000000e+00 0 0 0
1945 205 4 -5.2500000000000002e-01 -1.8186500000000001e+00 0.0000000000000000e+00 0 0 0
1955 215 4 0.0000000000000000e+00 -9.0932999999999997e-01 0.0000000000000000e+00 0 0 0
31 2 1 -5.9062500000000000e+00 -8.3354800000000004e+00 1.6875024916199077e+00 0 0 0
1 1 1 -7.4812500000000002e+00 -6.8199399999999999e+00 1.6875024916199077e+00 0 0 0
33 2 2 -5.9859365661784079e+00 -8.1482381033002493e+00 3.5348031396294393e+00 0 0 0
32 2 2 -6.1205296372662286e+00 -8.4620381121190285e+00 2.6140800958077381e+00 0 0 0
94 4 2 -5.1862080297761475e+00 -8.5033211433743876e+00 2.9707134672387898e+00 0 0 0
333 12 2 -5.3897571845537557e+00 -7.0358642055501530e+00 2.2791723569280871e+00 0 0 0
91 4 1 -2.7562500000000001e+00 -8.3354800000000004e+00 1.6875024916199077e+00 0 0 0
61 3 1 -4.3312499999999998e+00 -6.8199399999999999e+00 1.6875024916199077e+00 0 0 0
92 4 2 -3.8163432501296373e+00 -8.1757896360238362e+00 1.8526950539739979e+00 0 0 0
93 4 2 -4.4414764576513797e+00 -8.0836826034914679e+00 2.5752614400370173e+00 0 0 0
123 5 2 -2.8273920295627928e+00 -6.9787353107101726e+00 2.7053813417771932e+00 0 0 0
125 5 2 -3.5728141967049818e+00 -8.4827655336879655e+00 3.6610090392168617e+00 0 0 0
124 5 2 -3.1240559742787060e+00 -7.7579779662321808e+00 3.2648944399195341e+00 0 0 0
334 12 2 -4.8328166802547248e+00 -6.9339780026786775e+00 3.0986612320123466e+00 0 0 0
121 5 1 -1.1812499999999999e+00 -6.8199399999999999e+00 1.6875024916199077e+00 0 0 0
122 5 2 -2.1115255096299923e+00 -7.1154596660896425e+00 2.1868245991281636e+00 0 0 0
153 6 2 -3.5521184968953501e-01 -8.3526003550759089e+00 2.7723112521063364e+00 0 0 0
154 6 2 1.2910179283984105e-01 -8.8289264161935463e+00 3.4748343105697241e+00 0 0 0
331 12 1 -5.9062500000000000e+00 -5.3044000000000002e+00 1.6875024916199077e+00 0 0 0
332 12 2 -5.7841748900646941e+00 -6.1143393448800234e+00 2.1576540489428391e+00 0 0 0
303 11 2 -7.1512896042463661e+00 -4.5533683829746927e+00 2.9699621376962360e+00 0 0 0
302 11 2 -7.6798711970643101e+00 -4.5735935988200165e+00 2.2102913283352739e+00 0 0 0
363 13 2 -5.5407193355639706e+00 -4.8449609394405844e+00 2.5918169338285901e+00 0 0 0
391 14 1 -2.7562500000000001e+00 -5.3044000000000002e+00 1.6875024916199077e+00 0 0 0
362 13 2 -4.6127570176483541e+00 -4.5575459250121355e+00 2.1522838002208209e+00 0 0 0
336 12 2 -4.4759880751838805e+00 -5.8890900024581345e+00 3.5917439480499054e+00 0 0 0
64 3 2 -4.3363717164879914e+00 -5.6478091360660274e+00 1.8236304182101593e+00 0 0 0
65 3 2 -3.5222446264982628e+00 -6.2157728973799111e+00 1.9673014374849891e+00 0 0 0
66 3 2 -3.5374159052600826e+00 -6.1422687035776562e+00 2.9408709360596030e+00 0 0 0
67 3 2 -3.5516572337588874e+00 -5.1626873387453669e+00 2.9493100117570736e+00 0 0 0
392 14 2 -2.1748935671065994e+00 -5.3330342788774256e+00 2.4604771374134171e+00 0 0 0
393 14 2 -1.6588562732249197e+00 -5.8992379197908402e+00 3.1500877296325553e+00 0 0 0
301 11 1 -7.4812500000000002e+00 -3.7888500000000001e+00 1.6875024916199077e+00 0 0 0
365 13 2 -6.0276953872151164e+00 -3.7388986458218221e+00 3.5446146046307585e+00 0 0 0
632 22 2 -5.5408994664729576e+00 -2.7254174542669327e+00 2.5056555948835553e+00 0 0 0
634 22 2 -5.5512825066116287e+00 -2.4317553113568247e+00 3.6190533685631774e+00 0 0 0
875 30 2 -7.3420138380083282e+00 -3.1349576467763596e+00 3.4832585360312440e+00 1 0 0
361 13 1 -4.3312499999999998e+00 -3.7888500000000001e+00 1.6875024916199077e+00 0 0 0
364 13 2 -5.1140298634706083e+00 -4.3918417248569286e+00 3.4940065395810405e+00 0 0 0
69 3 2 -3.1722468602992739e+00 -3.4553901624044885e+00 2.5445027064474033e+00 0 0 0
70 3 2 -4.1159519804096059e+00 -3.5544261431101618e+00 2.8421910767450567e+00 0 0 0
71 3 2 -4.7803407266358544e+00 -3.0600031665934866e+00 3.4805775310988021e+00 0 0 0
68 3 2 -3.0270513420167271e+00 -4.3160240754259283e+00 3.0388209043740053e+00 0 0 0
421 15 1 -1.1812499999999999e+00 -3.7888500000000001e+00 1.6875024916199077e+00 0 0 0
422 15 2 -9.1215497201120421e-01 -2.8426020682083100e+00 1.7735579886408193e+00 0 0 0
423 15 2 -8.1627575951841069e-01 -3.1132554477744505e+00 2.6777845687061612e+00 0 0 0
424 15 2 -1.2898601596864649e+00 -3.7486116073448361e+00 3.3164720024517598e+00 0 0 0
483 17 2 1.9185957039726745e-01 -4.0345806350612925e+00 2.1847239625154362e+00 0 0 0
631 22 1 -5.9062500000000000e+00 -2.2733099999999999e+00 1.6875024916199077e+00 0 0 0
601 21 1 -7.4812500000000002e+00 -7.5777000000000005e-01 1.6875024916199077e+00 0 0 0
610 21 2 -6.2094685700372132e+00 -9.6250568474892462e-01 2.7212808801210513e+00 0 0 0
609 21 2 -7.0170385670954358e+00 -1.2823720620282457e+00 3.1212010320742545e+00 0 0 0
611 21 2 -5.3688443580866396e+00 -1.1428297157820071e+00 3.2755518757662174e+00 0 0 0
633 22 2 -5.9505617068749865e+00 -1.9134600722602693e+00 2.9400263782863019e+00 0 0 0
661 23 1 -4.3312499999999998e+00 -7.5777000000000005e-01 1.6875024916199077e+00 0 0 0
691 24 1 -2.7562500000000001e+00 -2.2733099999999999e+00 1.6875024916199077e+00 0 0 0
612 21 2 -4.7569050190330362e+00 -1.8715611871220550e+00 3.2362829338007382e+00 0 0 0
692 24 2 -2.7402579617547649e+00 -1.2880967577042910e+00 1.9372618541059878e+00 0 0 0
693 24 2 -2.5264447364319857e+00 -4.5965597231436556e-01 1.6991896439129250e+00 0 0 0
662 23 2 -4.7385034177895866e+00 -2.1640205477763236e-01 2.3893562208147410e+00 0 0 0
721 25 1 -1.1812499999999999e+00 -7.5777000000000005e-01 1.6875024916199077e+00 0 0 0
722 25 2 -4.8753735392033876e-01 -1.1744029250400176e+00 2.2671750083126261e+00 0 0 0
695 24 2 -1.9348120268096973e+00 -4.9216357923832565e-01 3.5888788511015082e+00 0 0 0
694 24 2 -2.2383814075024655e+00 -5.3044735047014469e-01 2.6228241527811540e+00 0 0 0
725 25 2 -4.9397395559655854e-01 -2.0046737925748763e+00 3.6611687548687599e+00 0 0 0
724 25 2 -1.7639870905192939e-01 -1.0606059034645696e+00 3.5744001496976594e+00 0 0 0
1053 36 2 -2.3699914664323607e-01 -1.2093325651596780e-01 2.1907536912884900e+00 0 0 0
34 2 2 -6.0998136308533590e+00 -7.4513196745091363e+00 4.1739911202838131e+00 0 0 0
35 2 2 -6.2463298092932664e+00 -7.3936773847967521e+00 5.2272847523812063e+00 0 0 0
97 4 2 -5.4217582005131106e+00 -8.7548187938295339e+00 4.8039785002859201e+00 0 0 0
1779 60 2 -7.8199999345879965e+00 -7.2333699645989551e+00 5.7439767590695965e+00 1 1 0
1777 60 2 -7.7218102496692946e+00 -7.3877088508269209e+00 4.3232739601201136e+00 1 1 0
338 12 2 -4.0601782428760878e+00 -7.5589285403332411e+00 4.3180244066749172e+00 0 0 0
96 4 2 -4.6554266415424346e+00 -9.0642714893165177e+00 4.3584366222938522e+00 0 0 0
126 5 2 -2.6740463306428883e+00 -8.6043320882478387e+00 3.8836491869912049e+00 0 0 0
128 5 2 -3.5833749912503801e+00 -8.6764709600400440e+00 5.5641262791418100e+00 0 0 0
99 4 2 -4.3269873800667522e+00 -7.6966431848140848e+00 5.8439373807379935e+00 0 0 0
98 4 2 -4.9159341245405628e+00 -8.3257348472069292e+00 5.4509583210729433e+00 0 0 0
339 12 2 -3.6960856183445943e+00 -6.8779662680433917e+00 4.9278174303779112e+00 0 0 0
397 14 2 -2.6899729425868832e+00 -7.5654431653145160e+00 5.0431097323355756e+00 0 0 0
129 5 2 -2.6581515855138687e+00 -8.9161463530480951e+00 5.6573926372448469e+00 0 0 0
127 5 2 -3.1952427476561556e+00 -8.7987417802770764e+00 4.7117445236292541e+00 0 0 0
398 14 2 -1.8035148555765474e+00 -7.3491596999230460e+00 5.4407176495765581e+00 0 0 0
155 6 2 1.8172548740906841e-01 -8.2260362695660589e+00 4.3000939532875666e+00 0 0 0
335 12 2 -5.2724444307896530e+00 -6.4314935273955065e+00 3.7567413322365173e+00 0 0 0
304 11 2 -6.7026003876325690e+00 -4.7215342038185328e+00 3.7755864290929804e+00 0 0 0
36 2 2 -6.8213321241444751e+00 -6.5895326000248415e+00 5.2992817315314049e+00 0 0 0
37 2 2 -6.5783384569581855e+00 -5.8437812649087499e+00 5.9108836523836707e+00 0 0 0
337 12 2 -4.0195873205608308e+00 -6.6980467197119458e+00 3.7891215769961577e+00 0 0 0
396 14 2 -2.4710896296605385e+00 -6.7653544318021828e+00 4.7417026480804214e+00 0 0 0
340 12 2 -4.4811732931478003e+00 -6.4932748816148651e+00 5.4212547973174896e+00 0 0 0
75 3 2 -4.3900715111153961e+00 -4.8152527388007016e+00 5.7803944076938141e+00 0 0 0
74 3 2 -5.0280574390479389e+00 -4.9396587135335581e+00 5.0147806587245505e+00 0 0 0
395 14 2 -2.3795356863852763e+00 -6.6533120207069603e+00 3.7656777046889331e+00 0 0 0
394 14 2 -2.0647266845406786e+00 -5.7517460192857097e+00 4.0490313317131514e+00 0 0 0
399 14 2 -1.3700075788611332e+00 -6.5183768626789194e+00 5.5384169178867317e+00 0 0 0
427 15 2 -1.4309702882686015e+00 -5.1868991181996096e+00 5.5873925261706647e+00 0 0 0
426 15 2 -1.8544301767432056e+00 -4.6853879037678148e+00 4.7985740319535504e+00 0 0 0
367 13 2 -7.1935509713357684e+00 -2.5039261738831358e+00 4.3825824866356333e+00 0 0 0
366 13 2 -6.5158006490681757e+00 -3.0542396936152665e+00 4.1676900518167423e+00 0 0 0
306 11 2 -6.2672511383953458e+00 -4.2634145517239359e+00 4.7060263953874184e+00 0 0 0
307 11 2 -6.1512076674666947e+00 -4.5325765605980015e+00 5.6125901039614510e+00 0 0 0
305 11 2 -7.2773320688096250e+00 -4.2096938031932707e+00 4.3905860915625290e+00 0 0 0
72 3 2 -4.1307004218121124e+00 -3.6945584159883484e+00 3.9989635876843073e+00 0 0 0
73 3 2 -4.6627178656771555e+00 -4.1143848660841185e+00 4.6546472305074982e+00 0 0 0
619 21 2 -4.1326998263406569e+00 -2.8371470175308340e+00 4.5328619089513111e+00 0 0 0
618 21 2 -3.4279832387587348e+00 -2.3758625799755442e+00 4.1120907010009562e+00 0 0 0
620 21 2 -3.6374200440270341e+00 -2.7745839470537192e+00 5.3394843665477749e+00 0 0 0
617 21 2 -2.7265709370701945e+00 -2.5621318835896183e+00 4.7147970646524398e+00 0 0 0
425 15 2 -1.7351466252541634e+00 -3.9270480459944808e+00 4.2022937406680905e+00 0 0 0
727 25 2 -9.0916348822246373e-01 -2.3271363561396869e+00 4.8573522466525620e+00 0 0 0
728 25 2 -1.1458994920882519e+00 -2.7509855265851639e+00 5.7169733708997112e+00 0 0 0
486 17 2 -1.8928378957801179e-01 -4.2347697076544266e+00 4.0941685123787170e+00 0 0 0
487 17 2 -1.1659172469175770e-01 -4.2269880223689427e+00 5.0333372629839142e+00 0 0 0
635 22 2 -5.4074869507062280e+00 -1.8694601973915774e+00 4.4077108931460449e+00 0 0 0
368 13 2 -7.1945023314447845e+00 -2.0610494988313453e+00 5.2469272808631491e+00 0 0 0
665 23 2 -5.8262330557303077e+00 -2.3413573568790823e-02 3.7592702754240213e+00 0 0 0
613 21 2 -4.1751184644409927e+00 -1.6520061397029733e+00 3.9660124022588321e+00 0 0 0
615 21 2 -3.5114036881625803e+00 -9.4819943804786322e-01 4.6089127824786100e+00 0 0 0
614 21 2 -4.2122896061524662e+00 -1.4099265537194274e+00 4.8973712906598061e+00 0 0 0
621 21 2 -3.2590507154693680e+00 -1.9471010351347087e+00 5.7234934832448037e+00 0 0 0
636 22 2 -5.1107911511616955e+00 -1.4914848659192681e+00 5.2162583616070393e+00 0 0 0
616 21 2 -2.7765701936050293e+00 -1.6512932672180178e+00 4.5281688355192893e+00 0 0 0
697 24 2 -1.7340027056945666e+00 -1.4989803520189812e-01 4.9341392340303374e+00 0 0 0
1122 38 2 1.9367782501400019e-01 -2.1642762474391611e-01 5.9347594519678069e+00 0 0 0
726 25 2 -2.4676437309899760e-01 -1.7119105059595869e+00 4.5275892642746181e+00 0 0 0
358 12 2 -7.8285216513588152e+00 -8.0010583584316031e+00 7.1461852366270007e+00 0 0 0
356 12 2 -6.8317623330628265e+00 -8.5758343487594182e+00 7.1354383871443483e+00 0 0 0
357 12 2 -7.0889923553884664e+00 -7.7523315063113527e+00 7.6499367665620115e+00 0 0 0
355 12 2 -5.9765195710996464e+00 -8.2295586743994740e+00 6.7178742877694928e+00 0 0 0
341 12 2 -5.2061263341259512e+00 -6.8953238850893595e+00 6.0549895530667754e+00 0 0 0
354 12 2 -5.2850086365061584e+00 -8.7994574677645634e+00 7.0577784107324648e+00 0 0 0
344 12 2 -5.7056266291952831e+00 -7.0103774273780681e+00 7.7946223534096122e+00 0 0 0
360 12 3 -7.4176064935765949e+00 -8.4508824147516197e+00 6.1841781065900232e+00 0 0 0
131 5 2 -2.6515299723202035e+00 -8.1763473075121773e+00 7.0249377264906379e+00 0 0 0
100 4 2 -4.0572632962460062e+00 -7.1118231231002751e+00 6.5101979252547890e+00 0 0 0
101 4 2 -4.2586461538994307e+00 -7.0625813702223512e+00 7.4327270816109863e+00 0 0 0
130 5 2 -2.6064789134926083e+00 -9.0784115324716748e+00 6.5936485501959732e+00 0 0 0
402 14 2 -1.1719886180222419e+00 -7.3718440799067890e+00 7.0620839607677031e+00 0 0 0
403 14 2 -5.4072407179483739e-01 -7.8091791208177233e+00 7.7919488085237987e+00 0 0 0
132 5 2 -2.1223856538680406e+00 -7.6061173223345122e+00 7.5526924905076260e+00 0 0 0
342 12 2 -5.4297970704217420e+00 -6.2369461331516094e+00 6.8285804253626488e+00 0 0 0
343 12 2 -6.1990863278551034e+00 -6.8158859826029490e+00 6.9720423355954519e+00 0 0 0
38 2 2 -6.3822672183830509e+00 -5.5842527602804815e+00 6.7936224319004479e+00 0 0 0
308 11 2 -6.4025831057454381e+00 -4.6093007210312109e+00 6.5324416136320744e+00 0 0 0
39 2 2 -6.0028842939327092e+00 -5.4887878054437538e+00 7.7705256832789402e+00 0 0 0
12 1 2 -7.7602110805512261e+00 -5.4280726170392493e+00 7.6842361727391921e+00 0 0 0
77 3 2 -3.1903887132813189e+00 -5.1530106013132038e+00 6.5732475373479877e+00 0 0 0
78 3 2 -4.1650035658425049e+00 -5.3395659435778313e+00 6.6138616020538290e+00 0 0 0
80 3 2 -3.6869820494115153e+00 -5.9267331887141346e+00 7.9883813863596851e+00 0 0 0
79 3 2 -4.5001198320699904e+00 -5.7010060370424327e+00 7.4141982612640396e+00 0 0 0
400 14 2 -7.3976498783261191e-01 -6.0931449477883675e+00 6.2085322389072770e+00 0 0 0
430 15 2 -1.7524252365101174e+00 -5.4572383200423884e+00 7.7990258056211088e+00 0 0 0
428 15 2 -1.3644784445424152e+00 -5.3153377295483422e+00 6.5149844611565593e+00 0 0 0
429 15 2 -1.5985833463408494e+00 -4.7036978107753553e+00 7.1596792709977182e+00 0 0 0
401 14 2 -4.6441700733290320e-01 -6.7385592128537333e+00 6.9438829939984164e+00 0 0 0
431 15 2 -8.1076718907587297e-01 -5.7661974521438957e+00 7.8183701336856162e+00 0 0 0
309 11 2 -6.5252575496987300e+00 -4.4459479455147415e+00 7.4837483838533387e+00 0 0 0
894 30 2 -5.9880030283002448e+00 -3.0568114388258802e+00 6.9587661202510613e+00 1 0 0
895 30 2 -5.2414580958675430e+00 -2.8905498986798825e+00 6.5501855895718846e+00 1 0 0
893 30 2 -6.2554928951560003e+00 -2.5321539535509849e+00 6.2625417456914318e+00 1 0 0
76 3 2 -3.7159075023954240e+00 -4.3901504186980400e+00 6.2644724427511367e+00 0 0 0
896 30 2 -4.5896752713051505e+00 -3.4789825872418740e+00 6.8686535921133300e+00 1 0 0
897 30 2 -4.2053572377948258e+00 -2.7873053921735300e+00 7.3559170995605134e+00 1 0 0
898 30 2 -3.6233586627056731e+00 -3.5096959187283425e+00 7.3178551402352694e+00 1 0 0
899 30 2 -3.7252869397258137e+00 -4.3907850377448376e+00 7.6239870437671051e+00 1 0 0
626 21 2 -3.0296116152646180e+00 -2.9440931761634639e+00 8.1876135036144877e+00 0 0 0
630 21 3 -2.0908770676191941e+00 -3.1679752196479649e+00 7.8654072664844614e+00 0 0 0
629 21 2 -1.2736876186791353e+00 -2.7393972936154922e+00 8.0005333643536449e+00 0 0 0
729 25 2 -8.2948478489322619e-01 -2.5666210846045461e+00 6.6299544108713118e+00 0 0 0
491 17 2 -1.5670218390881197e+00 -4.2483621487826833e+00 8.1053338207708183e+00 0 0 0
490 17 2 -7.8423071981146653e-01 -4.1198252024039821e+00 7.5329219368940619e+00 0 0 0
489 17 2 -3.5038943507667847e-01 -4.1497170969368220e+00 6.6945781116622456e+00 0 0 0
203 7 2 4.6713564388681190e-02 -3.9456622563837978e+00 8.1998441347773703e+00 0 0 0
370 13 2 -7.6788050457508730e+00 -1.4876978578183218e+00 6.2558445725406946e+00 0 0 0
371 13 2 -7.6648256996061592e+00 -1.7407964801836724e+00 7.1850894532123348e+00 0 0 0
637 22 2 -5.2266204884245120e+00 -1.2528685104258679e+00 6.2375100311634730e+00 0 0 0
638 22 2 -5.2042350221551175e+00 -1.2350565618115716e+00 7.1170467989827362e+00 0 0 0
886 30 2 -6.6280457822274039e+00 -6.5986808232476435e-01 6.5325772292220785e+00 1 0 0
892 30 2 -6.6768358601336875e+00 -1.7659083802418460e+00 6.6797898792668864e+00 1 0 0
891 30 2 -6.0534931498319464e+00 -1.8071737767920915e+00 7.5500153955023324e+00 1 0 0
888 30 2 -7.3952521846285242e+00 -6.0644000593549541e-01 8.0620256008453914e+00 1 0 0
887 30 2 -6.7092418123306503e+00 -7.8709626675730604e-01 7.4802790214031436e+00 1 0 0
670 23 2 -3.3642780074026999e+00 -1.0218567187934240e-01 6.1437602545560992e+00 0 0 0
671 23 2 -3.2209520101218425e+00 -5.0360546919361848e-01 6.9867375836365335e+00 0 0 0
623 21 2 -3.3812840607668724e+00 -1.6248754327941646e+00 7.1456375426123691e+00 0 0 0
622 21 2 -2.7272736568136535e+00 -1.5695621105068027e+00 6.4338840988649384e+00 0 0 0
639 22 2 -4.8708494362842973e+00 -1.9603849637840021e+00 7.6534478373402663e+00 0 0 0
672 23 2 -3.9747239112818482e+00 -4.9442525158258738e-01 7.6592556863684100e+00 0 0 0
624 21 2 -3.3612931892098143e+00 -1.4116781278598192e+00 8.0960819168468525e+00 0 0 0
699 24 2 -2.0738472765566995e+00 -1.8769249257496937e-01 6.8882523892853591e+00 0 0 0
731 25 2 -1.3083053250026062e+00 -8.7971781110469227e-01 6.9357363452563039e+00 0 0 0
730 25 2 -7.9560232664825559e-01 -1.6766873866984779e+00 7.0365679704279671e+00 0 0 0
732 25 2 -9.8264760410798724e-01 -9.9592445065084334e-01 7.8698661198252493e+00 0 0 0
734 25 2 -2.2058686793814011e+00 -1.1548180075825183e+00 7.9323414227689195e+00 0 0 0
346 12 2 -5.5473760770756337e+00 -7.5815551267380439e+00 9.1535796968880572e+00 0 0 0
345 12 2 -6.1998697981126520e+00 -7.3686709166230093e+00 8.4695330501050492e+00 0 0 0
254 9 2 -7.5050687034607622e+00 -8.1756612231215673e+00 1.0144269294084159e+01 1 0 0
925 31 2 -7.0092247095401117e+00 -8.9903588981013307e+00 9.9753143851088399e+00 0 1 0
350 12 2 -5.0156297771875344e+00 -8.3864422009997774e+00 8.6618807921368202e+00 0 0 0
104 4 2 -3.7948208238046539e+00 -7.7007721355606682e+00 9.8775610051285536e+00 0 0 0
347 12 2 -5.1521919803173128e+00 -8.3121428476074719e+00 9.6242288226521229e+00 0 0 0
103 4 2 -4.2828042797659265e+00 -7.0733496248430736e+00 9.3488727386827346e+00 0 0 0
102 4 2 -4.2117935739134831e+00 -7.1845515826285089e+00 8.3648670752042857e+00 0 0 0
349 12 2 -4.4890912752650962e+00 -9.0749970543630329e+00 8.3244931986654418e+00 0 0 0
135 5 2 -2.5669473713772093e+00 -7.6905284536414049e+00 9.8818348421493951e+00 0 0 0
405 14 2 -1.2795073423123471e+00 -8.8657034638767716e+00 9.1679343073171520e+00 0 0 0
86 3 2 -7.3852752499103635e-01 -7.7203175556079167e+00 9.0866304465125776e+00 0 0 0
134 5 2 -1.8946598844834961e+00 -8.0701751979507268e+00 9.2696482853020896e+00 0 0 0
133 5 2 -2.1714380756024250e+00 -7.7207347620616558e+00 8.4873948009359310e+00 0 0 0
404 14 2 -1.0487872568300050e+00 -8.4685674007057319e+00 8.2802004773802782e+00 0 0 0
87 3 2 -1.1088593605323581e-01 -8.4939233667795815e+00 9.5249993413523253e+00 0 0 0
15 1 2 -7.3829641588512720e+00 -5.9109855588635600e+00 9.8501661148679620e+00 0 0 0
310 11 2 -6.6902190954899980e+00 -4.5799121204548472e+00 8.3904043831105373e+00 0 0 0
40 2 2 -5.2253381090631397e+00 -5.2110638211147302e+00 8.2762641650757214e+00 0 0 0
42 2 2 -5.3178010153155713e+00 -5.8889011210942073e+00 1.0040089317330201e+01 0 0 0
378 13 2 -6.9191991742479626e+00 -4.8495130004992770e+00 1.0002795489500127e+01 0 0 0
41 2 2 -5.0655088774520145e+00 -5.8034400920570128e+00 9.1071887828635578e+00 0 0 0
683 23 2 -3.5657705010340059e+00 -5.1624279325978462e+00 9.9212173070877050e+00 0 0 0
82 3 2 -2.7023016447786712e+00 -6.6653647454546965e+00 8.9897447881452859e+00 0 0 0
81 3 2 -3.5907666223990740e+00 -6.3269947475147541e+00 8.9078074442441117e+00 0 0 0
900 30 3 -3.2952301379325504e+00 -4.7472968705248269e+00 8.4017144904321945e+00 1 0 0
684 23 2 -2.6130838505715648e+00 -5.3679618366953674e+00 1.0054129883873694e+01 0 0 0
682 23 2 -4.4852790470033881e+00 -4.7181300211190065e+00 1.0125129751410704e+01 0 0 0
84 3 2 -1.0921387462468026e+00 -6.7035819327386017e+00 9.9140956271138982e+00 0 0 0
85 3 2 -6.0992629638202223e-01 -6.7434597060476893e+00 9.1020936545714495e+00 0 0 0
83 3 2 -1.7611985613476526e+00 -6.5332452610188634e+00 9.2094151656795571e+00 0 0 0
433 15 2 -4.2863559588576661e-01 -5.1903426275680991e+00 9.5107008082303732e+00 0 0 0
434 15 2 3.0969609553716408e-02 -5.9246719241772805e+00 9.9043961348869107e+00 0 0 0
432 15 2 -3.8023831374523809e-01 -5.4356745833766018e+00 8.5665989462686021e+00 0 0 0
314 11 2 -5.6692012553383808e+00 -2.8063424406560378e+00 9.9298538099390399e+00 0 0 0
311 11 2 -6.3660762778927076e+00 -4.3651605676316763e+00 9.3242214034029214e+00 0 0 0
312 11 2 -6.3820101290917268e+00 -3.4107721633036161e+00 9.0639497661007429e+00 0 0 0
376 13 2 -7.2157152693053215e+00 -3.0495280135476297e+00 9.8952926703699440e+00 0 0 0
313 11 2 -6.2111868955079634e+00 -3.5964440139878193e+00 9.9604636289144732e+00 0 0 0
377 13 2 -7.2937738976247504e+00 -3.9779817282152052e+00 1.0255461420492399e+01 0 0 0
315 11 2 -6.3681914178543044e+00 -2.3896969143939906e+00 1.0364746885694204e+01 0 0 0
625 21 2 -3.7253536388499113e+00 -2.2901179650614103e+00 8.2684075768114660e+00 0 0 0
627 21 2 -2.6783681200937473e+00 -2.6207611643918503e+00 9.0304575565203411e+00 0 0 0
642 22 2 -4.5060298463224298e+00 -2.4359313171831580e+00 9.5420319743382471e+00 0 0 0
492 17 2 -1.6381075759262160e+00 -4.2221637143010140e+00 9.0152465664633681e+00 0 0 0
493 17 2 -2.2764899155910561e+00 -4.1188366715921267e+00 9.7119434233411646e+00 0 0 0
628 21 2 -1.7587992743843219e+00 -2.5756168446885610e+00 8.8532973421437582e+00 0 0 0
206 7 2 1.4685291488759841e-01 -4.2419187193722809e+00 9.3529183095294641e+00 0 0 0
205 7 2 -1.8062863190796744e-01 -3.3171646082908453e+00 9.6660608984447993e+00 0 0 0
204 7 2 1.7091524546466827e-02 -3.2292005117053613e+00 8.7388137707108307e+00 0 0 0
494 17 2 -1.5614712738528698e+00 -4.4716993699641616e+00 1.0368762976772706e+01 0 0 0
640 22 2 -5.2493014273226253e+00 -1.9423218740968340e+00 8.5939425784305676e+00 0 0 0
375 13 2 -6.8640211235982580e+00 -2.1577254883398083e+00 9.4596114572521568e+00 0 0 0
374 13 2 -7.7072107815365918e+00 -2.0860854287120350e+00 9.0410903903543733e+00 0 0 0
677 23 2 -5.4039117401608330e+00 -7.5160332025940679e-01 9.8543347779462724e+00 0 0 0
890 30 2 -6.4504528834540720e+00 -1.7329769073231782e+00 8.3354470758901016e+00 1 0 0
889 30 2 -6.8473355380302872e+00 -8.7714768695757594e-01 8.7242824098138563e+00 1 0 0
643 22 2 -3.7820646821175834e+00 -1.8266691261564751e+00 9.8540597690325225e+00 0 0 0
676 23 2 -4.5455348849735495e+00 -6.6486947088130510e-01 9.2749130352450742e+00 0 0 0
641 22 2 -4.3933763459757564e+00 -1.6177198470698171e+00 8.8801527393876771e+00 0 0 0
673 23 2 -4.4085218940273849e+00 -1.2365154688521229e-02 8.3262383360483874e+00 0 0 0
735 25 2 -2.5224263744780293e+00 -6.1711586938096874e-01 8.7019844755918179e+00 0 0 0
675 23 2 -3.9243606119471761e+00 -6.3116878232041373e-01 9.9264809163742598e+00 0 0 0
644 22 2 -3.0624578652833936e+00 -2.0354163191033154e+00 1.0359136845409218e+01 0 0 0
678 23 2 -4.9164997977987106e+00 -1.5375421547607122e+00 9.9127716707486062e+00 0 0 0