ITEM: TIMESTEP
0
ITEM: NUMBER OF ATOMS
30
ITEM: BOX BOUNDS pp pp pp
-5.7758099999999999e+00 5.7758099999999999e+00
-5.7758099999999999e+00 5.7758099999999999e+00
-5.7758099999999999e+00 5.7758099999999999e+00
ITEM: ATOMS id mol type xu yu zu 
1 1 1 -2.34988 17.4022 -18.7272 
2 1 1 -1.95165 18.2491 -18.6235 
3 1 1 -1.20309 18.5647 -19.1004 
4 1 1 -0.959464 19.3394 -18.6073 
5 1 1 -0.768 19.6791 -17.7587 
6 1 1 -0.722075 19.1322 -16.9551 
7 1 1 -0.178618 18.3465 -17.0039 
8 1 1 -0.615899 17.5431 -16.7584 
9 1 1 -1.07976 17.0747 -17.4758 
10 1 1 -1.60855 16.2614 -17.4246 
11 1 1 -1.1176 15.6866 -16.7748 
12 1 1 -0.454026 15.0651 -16.4798 
13 1 1 0.355148 14.6867 -16.064 
14 1 1 1.00004 14.0113 -16.3184 
15 1 1 1.637 13.9471 -15.6095 
16 1 1 2.41361 13.5605 -16.0268 
17 1 1 3.12617 14.2033 -16.2897 
18 1 1 3.26016 14.2238 -17.2333 
19 1 1 3.68597 14.5978 -18.024 
20 1 1 3.60617 15.548 -17.921 
21 1 1 2.62396 15.5873 -17.898 
22 1 1 1.78747 15.419 -18.3408 
23 1 1 1.31244 15.8322 -19.0853 
24 1 1 1.2312 15.907 -20.0286 
25 1 1 1.98516 16.5795 -20.0499 
26 1 1 2.03383 16.9532 -20.9079 
27 1 1 2.86334 17.4425 -20.9335 
28 1 1 3.21446 17.8969 -21.7089 
29 1 1 2.66312 18.6148 -22.0386 
30 1 1 3.17853 19.4187 -21.8655 
ITEM: TIMESTEP
1000
ITEM: NUMBER OF ATOMS
30
ITEM: BOX BOUNDS pp pp pp
-5.7758099999999999e+00 5.7758099999999999e+00
-5.7758099999999999e+00 5.7758099999999999e+00
-5.7758099999999999e+00 5.7758099999999999e+00
ITEM: ATOMS id mol type xu yu zu 
1 1 1 -2.58119 17.1244 -19.4546 
2 1 1 -2.16334 17.914 -19.1897 
3 1 1 -1.52371 18.6306 -18.8669 
4 1 1 -0.977801 19.4131 -18.6392 
5 1 1 -1.07946 19.3097 -17.7092 
6 1 1 -0.576679 18.8956 -16.9827 
7 1 1 -0.200936 18.0425 -17.2309 
8 1 1 -0.846425 17.576 -16.6805 
9 1 1 -1.28525 17.0605 -17.3586 
10 1 1 -1.36246 16.1378 -17.3847 
11 1 1 -0.646368 15.6532 -16.9513 
12 1 1 -0.172606 15.3544 -16.1282 
13 1 1 0.708454 15.1211 -16.3821 
14 1 1 0.783001 14.1704 -16.3631 
15 1 1 1.42549 13.9902 -15.7184 
16 1 1 2.22232 13.6878 -16.192 
17 1 1 2.8012 14.3714 -16.484 
18 1 1 3.38197 14.3324 -17.2971 
19 1 1 4.01632 14.8837 -17.7497 
20 1 1 3.57991 15.4259 -18.4052 
21 1 1 2.68552 15.5857 -18.1658 
22 1 1 2.07768 15.1323 -18.7366 
23 1 1 1.23246 15.2463 -19.2235 
24 1 1 1.04417 15.7418 -20.0681 
25 1 1 1.8191 16.0525 -20.5492 
26 1 1 1.83517 16.9304 -20.9238 
27 1 1 2.5239 17.6197 -20.9497 
28 1 1 2.38433 18.1434 -21.7753 
29 1 1 2.55316 19.0632 -22.0843 
30 1 1 3.29226 19.5567 -21.73 
ITEM: TIMESTEP
2000
ITEM: NUMBER OF ATOMS
30
ITEM: BOX BOUNDS pp pp pp
-5.7758099999999999e+00 5.7758099999999999e+00
-5.7758099999999999e+00 5.7758099999999999e+00
-5.7758099999999999e+00 5.7758099999999999e+00
ITEM: ATOMS id mol type xu yu zu 
1 1 1 -2.48997 17.5465 -19.4236 
2 1 1 -2.50953 18.4707 -19.1538 
3 1 1 -1.66313 18.8799 -18.9429 
4 1 1 -1.00192 19.3904 -18.5238 
5 1 1 -0.935698 19.7539 -17.6429 
6 1 1 -0.461932 19.2761 -16.9786 
7 1 1 -0.00675926 18.4851 -17.3949 
8 1 1 0.179122 17.5753 -17.1428 
9 1 1 -0.715981 17.2773 -17.3298 
10 1 1 -1.23984 16.5149 -17.0303 
11 1 1 -1.10501 15.5979 -16.9066 
12 1 1 -0.369943 15.0231 -16.8207 
13 1 1 0.605591 15.0512 -16.955 
14 1 1 0.907556 14.221 -16.6097 
15 1 1 1.50898 13.7006 -16.0205 
16 1 1 2.3597 13.2683 -16.1363 
17 1 1 2.71189 13.7625 -16.9027 
18 1 1 3.4172 14.3271 -17.1394 
19 1 1 3.75579 14.6882 -17.9686 
20 1 1 3.237 15.146 -18.6291 
21 1 1 2.33734 15.5475 -18.4372 
22 1 1 1.56189 15.0543 -18.6987 
23 1 1 0.907963 14.8728 -19.3821 
24 1 1 0.863874 15.3939 -20.1308 
25 1 1 1.01667 16.306 -20.43 
26 1 1 1.62804 16.7381 -20.994 
27 1 1 2.18778 17.1713 -21.6241 
28 1 1 2.42661 17.8095 -22.3285 
29 1 1 2.62757 18.6307 -21.8707 
30 1 1 3.39288 18.9857 -21.5 
ITEM: TIMESTEP
3000
ITEM: NUMBER OF ATOMS
30
ITEM: BOX BOUNDS pp pp pp
-5.7758099999999999e+00 5.7758099999999999e+00
-5.7758099999999999e+00 5.7758099999999999e+00
-5.7758099999999999e+00 5.7758099999999999e+00
ITEM: ATOMS id mol type xu yu zu 
1 1 1 -3.05407 17.8148 -19.2246 
2 1 1 -2.6101 18.5072 -19.716 
3 1 1 -2.19317 19.1978 -19.1906 
4 1 1 -1.42002 19.6695 -18.8988 
5 1 1 -1.46927 19.6182 -17.9623 
6 1 1 -0.982637 19.3983 -17.1786 
7 1 1 -0.353579 18.786 -17.4871 
8 1 1 -0.0636901 17.8784 -17.3811 
9 1 1 -0.751335 17.1962 -17.5293 
10 1 1 -1.30638 16.5138 -17.1366 
11 1 1 -1.10286 15.5918 -16.8282 
12 1 1 -0.626088 14.9373 -16.3491 
13 1 1 0.275313 14.5154 -16.5013 
14 1 1 1.08635 14.2681 -16.0317 
15 1 1 1.48754 13.4295 -15.8983 
16 1 1 1.96959 12.7912 -16.4168 
17 1 1 2.59141 13.4742 -16.7353 
18 1 1 3.33623 14.0362 -17.063 
19 1 1 3.50151 14.3365 -18.0104 
20 1 1 3.11446 14.8539 -18.7374 
21 1 1 2.48224 15.4992 -18.4078 
22 1 1 1.56378 15.569 -18.6396 
23 1 1 0.885395 15.6677 -19.2921 
24 1 1 1.18054 15.3446 -20.1222 
25 1 1 1.57292 16.0369 -20.7031 
26 1 1 2.29946 16.6771 -20.7418 
27 1 1 2.27241 17.2183 -21.5063 
28 1 1 2.2582 18.011 -22.1772 
29 1 1 2.62238 18.5557 -21.527 
30 1 1 3.5676 18.4619 -21.3306 
ITEM: TIMESTEP
4000
ITEM: NUMBER OF ATOMS
30
ITEM: BOX BOUNDS pp pp pp
-5.7758099999999999e+00 5.7758099999999999e+00
-5.7758099999999999e+00 5.7758099999999999e+00
-5.7758099999999999e+00 5.7758099999999999e+00
ITEM: ATOMS id mol type xu yu zu 
1 1 1 -2.88426 17.9682 -19.3608 
2 1 1 -2.46015 18.6643 -19.8468 
3 1 1 -2.36208 19.3626 -19.1776 
4 1 1 -1.51865 19.3866 -18.7362 
5 1 1 -1.36886 19.4773 -17.8371 
6 1 1 -0.559012 19.5995 -17.3134 
7 1 1 0.162395 19.0734 -17.7148 
8 1 1 0.0315184 18.227 -17.2733 
9 1 1 -0.620609 17.5136 -17.3409 
10 1 1 -0.886708 16.588 -17.146 
11 1 1 -0.758944 15.7174 -16.743 
12 1 1 -0.644663 14.8621 -16.2654 
13 1 1 0.275125 14.5748 -16.0346 
14 1 1 0.919576 13.8947 -15.9996 
15 1 1 1.47578 13.1647 -15.6507 
16 1 1 1.76058 12.7844 -16.4944 
17 1 1 2.21385 13.4628 -16.9928 
18 1 1 3.09591 13.586 -17.3187 
19 1 1 3.25678 13.9237 -18.2059 
20 1 1 3.14607 14.8851 -18.2686 
21 1 1 2.26087 14.9514 -17.8304 
22 1 1 1.71009 15.5549 -18.4125 
23 1 1 1.19652 14.903 -18.8773 
24 1 1 1.2111 15.3381 -19.7463 
25 1 1 1.7467 15.8592 -20.3988 
26 1 1 2.59928 16.1977 -20.6184 
27 1 1 2.33003 16.7494 -21.3856 
28 1 1 2.21298 17.5718 -21.9031 
29 1 1 2.35575 18.5054 -21.69 
30 1 1 3.2647 18.6039 -21.3723 
ITEM: TIMESTEP
5000
ITEM: NUMBER OF ATOMS
30
ITEM: BOX BOUNDS pp pp pp
-5.7758099999999999e+00 5.7758099999999999e+00
-5.7758099999999999e+00 5.7758099999999999e+00
-5.7758099999999999e+00 5.7758099999999999e+00
ITEM: ATOMS id mol type xu yu zu 
1 1 1 -2.55478 17.6092 -19.189 
2 1 1 -2.83811 18.5278 -19.3389 
3 1 1 -2.52127 19.3939 -19.1113 
4 1 1 -1.81936 19.9951 -18.8235 
5 1 1 -1.495 19.4578 -18.1596 
6 1 1 -0.907902 19.6074 -17.3979 
7 1 1 -0.0643581 19.2428 -17.5924 
8 1 1 -0.0921234 18.2905 -17.5411 
9 1 1 -0.523388 17.475 -17.4154 
10 1 1 -0.769101 16.6382 -17.0457 
11 1 1 -0.978046 15.717 -17.0353 
12 1 1 -0.451777 15.1152 -16.5306 
13 1 1 -0.104227 14.2286 -16.4014 
14 1 1 0.531428 13.669 -15.865 
15 1 1 1.36947 13.1923 -16.0735 
16 1 1 1.72831 13.0552 -16.9744 
17 1 1 2.68021 12.9512 -17.1623 
18 1 1 3.25705 13.716 -17.2206 
19 1 1 3.18535 14.102 -18.0816 
20 1 1 3.09398 14.9883 -17.7251 
21 1 1 2.20025 15.3327 -17.4761 
22 1 1 1.71145 15.2602 -18.3388 
23 1 1 0.99219 15.2292 -18.9676 
24 1 1 0.792239 15.8192 -19.7198 
25 1 1 1.5938 15.8508 -20.2469 
26 1 1 2.39517 16.3775 -20.3817 
27 1 1 2.70835 17.0104 -21.0458 
28 1 1 2.25416 17.648 -21.5582 
29 1 1 2.40489 18.5463 -21.2117 
30 1 1 3.33199 18.862 -21.2512 
ITEM: TIMESTEP
6000
ITEM: NUMBER OF ATOMS
30
ITEM: BOX BOUNDS pp pp pp
-5.7758099999999999e+00 5.7758099999999999e+00
-5.7758099999999999e+00 5.7758099999999999e+00
-5.7758099999999999e+00 5.7758099999999999e+00
ITEM: ATOMS id mol type xu yu zu 
1 1 1 -2.66965 17.6521 -19.0668 
2 1 1 -2.3745 18.3798 -19.6118 
3 1 1 -2.36916 19.3229 -19.3532 
4 1 1 -1.64061 19.9427 -19.0554 
5 1 1 -1.36931 19.6976 -18.1226 
6 1 1 -0.489217 19.7649 -17.7555 
7 1 1 0.00468938 18.96 -17.7507 
8 1 1 -0.363388 18.0309 -17.8083 
9 1 1 -0.53675 17.2563 -17.2204 
10 1 1 -0.668538 16.6248 -16.4799 
11 1 1 -0.826127 15.7437 -16.8941 
12 1 1 -0.759689 14.7828 -16.7274 
13 1 1 -0.108853 14.0559 -16.7766 
14 1 1 0.492013 13.4841 -16.3128 
15 1 1 1.38824 13.682 -16.1731 
16 1 1 1.99039 13.0669 -16.5518 
17 1 1 2.1733 13.4752 -17.3892 
18 1 1 3.0294 13.9408 -17.5822 
19 1 1 2.87884 14.5318 -18.3166 
20 1 1 2.74621 15.3278 -17.7707 
21 1 1 1.88808 15.1602 -17.3738 
22 1 1 1.20158 15.1222 -18.0352 
23 1 1 0.936615 15.6551 -18.819 
24 1 1 0.71417 16.1456 -19.6273 
25 1 1 1.51049 16.3599 -20.1097 
26 1 1 2.44611 16.3356 -20.3577 
27 1 1 2.77117 16.8811 -21.0471 
28 1 1 2.12432 17.5485 -21.296 
29 1 1 2.54272 18.3128 -20.8971 
30 1 1 2.85991 19.2229 -21.168 
ITEM: TIMESTEP
7000
ITEM: NUMBER OF ATOMS
30
ITEM: BOX BOUNDS pp pp pp
-5.7758099999999999e+00 5.7758099999999999e+00
-5.7758099999999999e+00 5.7758099999999999e+00
-5.7758099999999999e+00 5.7758099999999999e+00
ITEM: ATOMS id mol type xu yu zu 
1 1 1 -2.75692 18.3535 -19.1946 
2 1 1 -2.29271 19.0409 -19.6664 
3 1 1 -2.45426 19.797 -19.081 
4 1 1 -1.68915 20.2365 -18.6698 
5 1 1 -1.56861 19.6376 -17.9369 
6 1 1 -0.789669 19.2576 -17.5513 
7 1 1 -0.189905 18.5576 -17.7413 
8 1 1 -0.572375 17.8092 -18.2146 
9 1 1 -0.638034 17.0915 -17.5727 
10 1 1 -0.756978 16.3087 -17.116 
11 1 1 -0.901411 15.4118 -16.6801 
12 1 1 -0.653075 14.5108 -16.8826 
13 1 1 0.162322 14.0165 -16.9121 
14 1 1 0.728809 13.463 -16.3698 
15 1 1 1.56488 13.4403 -15.9483 
16 1 1 2.3347 13.3653 -16.5846 
17 1 1 2.24605 13.6946 -17.4959 
18 1 1 3.08327 14.0872 -17.3248 
19 1 1 3.30004 14.9709 -17.5962 
20 1 1 2.63685 15.4185 -17.0615 
21 1 1 1.95096 15.3029 -17.7001 
22 1 1 1.5752 15.1393 -18.5445 
23 1 1 1.0992 15.9658 -18.7391 
24 1 1 0.967614 15.9792 -19.7112 
25 1 1 1.81011 16.403 -19.9299 
26 1 1 2.63118 16.2124 -20.3927 
27 1 1 2.63937 16.515 -21.2995 
28 1 1 2.45177 17.5148 -21.3159 
29 1 1 2.46477 18.301 -20.7331 
30 1 1 3.06042 19.0057 -20.9072 
ITEM: TIMESTEP
8000
ITEM: NUMBER OF ATOMS
30
ITEM: BOX BOUNDS pp pp pp
-5.7758099999999999e+00 5.7758099999999999e+00
-5.7758099999999999e+00 5.7758099999999999e+00
-5.7758099999999999e+00 5.7758099999999999e+00
ITEM: ATOMS id mol type xu yu zu 
1 1 1 -3.07819 18.2342 -19.125 
2 1 1 -2.14849 18.5115 -18.9044 
3 1 1 -1.92457 19.4582 -19.0175 
4 1 1 -1.4635 20.0432 -18.3771 
5 1 1 -1.46523 19.6408 -17.5051 
6 1 1 -1.27357 18.7876 -17.1121 
7 1 1 -0.369995 18.6053 -17.4335 
8 1 1 -0.371756 17.8298 -18.0036 
9 1 1 -0.898371 17.0708 -17.7833 
10 1 1 -0.994465 16.3435 -17.1556 
11 1 1 -0.72838 15.4058 -17.1179 
12 1 1 -0.860754 14.6183 -16.5722 
13 1 1 -0.368402 13.7663 -16.4517 
14 1 1 0.506975 13.4576 -16.2957 
15 1 1 1.3772 13.376 -15.8868 
16 1 1 2.20126 13.798 -16.1777 
17 1 1 2.61906 13.9274 -17.0894 
18 1 1 3.37912 14.0251 -17.7214 
19 1 1 3.6964 14.8817 -17.3575 
20 1 1 3.03648 15.6244 -17.1184 
21 1 1 2.16423 15.7703 -17.5536 
22 1 1 1.59178 15.7776 -18.342 
23 1 1 1.21741 16.1972 -19.1111 
24 1 1 1.01821 16.7009 -19.871 
25 1 1 1.76701 16.525 -20.4299 
26 1 1 2.68088 16.2822 -20.6736 
27 1 1 2.96328 16.8768 -21.4094 
28 1 1 2.32068 17.5964 -21.5026 
29 1 1 2.77331 18.4286 -21.4395 
30 1 1 2.98257 19.2539 -21.0598 
ITEM: TIMESTEP
9000
ITEM: NUMBER OF ATOMS
30
ITEM: BOX BOUNDS pp pp pp
-5.7758099999999999e+00 5.7758099999999999e+00
-5.7758099999999999e+00 5.7758099999999999e+00
-5.7758099999999999e+00 5.7758099999999999e+00
ITEM: ATOMS id mol type xu yu zu 
1 1 1 -2.95312 18.004 -18.6071 
2 1 1 -2.08501 18.3878 -18.814 
3 1 1 -1.69349 19.2347 -19.0276 
4 1 1 -1.65173 19.7362 -18.1656 
5 1 1 -1.49047 19.5173 -17.229 
6 1 1 -1.10959 18.7735 -16.7599 
7 1 1 -0.403624 18.5744 -17.3198 
8 1 1 -0.797238 17.9392 -17.9147 
9 1 1 -0.739404 17 -17.9257 
10 1 1 -0.842588 16.3567 -17.1837 
11 1 1 -0.682327 15.5732 -16.5961 
12 1 1 -0.491399 14.6037 -16.6767 
13 1 1 -0.417872 13.6873 -16.3877 
14 1 1 0.374933 13.1282 -16.2676 
15 1 1 1.24756 12.786 -16.5489 
16 1 1 2.11646 13.218 -16.5347 
17 1 1 2.63671 13.51 -17.2716 
18 1 1 3.32575 13.8125 -17.8974 
19 1 1 3.38022 14.6496 -17.4735 
20 1 1 2.87697 15.4618 -17.3932 
21 1 1 2.01371 15.8516 -17.2818 
22 1 1 1.49723 15.6053 -18.0414 
23 1 1 1.05386 15.9234 -18.8136 
24 1 1 0.770218 16.4944 -19.5305 
25 1 1 1.24547 16.3672 -20.3531 
26 1 1 2.19943 16.2659 -20.0763 
27 1 1 2.65338 16.9281 -20.6232 
28 1 1 2.54302 17.5252 -21.3784 
29 1 1 3.21409 18.2023 -21.2689 
30 1 1 3.39809 19.169 -21.3578 
ITEM: TIMESTEP
10000
ITEM: NUMBER OF ATOMS
30
ITEM: BOX BOUNDS pp pp pp
-5.7758099999999999e+00 5.7758099999999999e+00
-5.7758099999999999e+00 5.7758099999999999e+00
-5.7758099999999999e+00 5.7758099999999999e+00
ITEM: ATOMS id mol type xu yu zu 
1 1 1 -2.68683 17.6419 -18.3818 
2 1 1 -1.93289 18.058 -18.822 
3 1 1 -1.80934 18.8685 -18.3452 
4 1 1 -1.40204 19.6436 -17.9833 
5 1 1 -1.35622 19.3017 -17.0496 
6 1 1 -0.447121 18.9852 -16.9464 
7 1 1 -0.259359 18.2528 -17.5052 
8 1 1 -0.821078 17.5228 -17.8469 
9 1 1 -0.516795 16.6061 -17.7051 
10 1 1 -0.458135 15.9464 -16.969 
11 1 1 -0.4568 14.9455 -16.9735 
12 1 1 -0.48967 14.1824 -16.3541 
13 1 1 -0.198975 13.2846 -16.2233 
14 1 1 0.775831 13.4195 -16.2946 
15 1 1 1.14796 12.6259 -16.66 
16 1 1 1.99414 12.6572 -17.1017 
17 1 1 2.23127 13.5763 -17.3413 
18 1 1 3.03035 13.9143 -17.7326 
19 1 1 3.57507 14.5811 -17.258 
20 1 1 3.00137 15.4008 -17.1005 
21 1 1 2.57087 16.0536 -17.6877 
22 1 1 1.88545 16.1279 -18.333 
23 1 1 1.19695 15.8833 -18.9404 
24 1 1 0.506432 15.9853 -19.5648 
25 1 1 0.977443 16.5243 -20.2814 
26 1 1 1.85806 16.1332 -20.6664 
27 1 1 2.49447 16.8371 -20.6571 
28 1 1 2.7404 17.1743 -21.49 
29 1 1 2.97559 18.0855 -21.7161 
30 1 1 3.4497 18.9072 -21.8186 
ITEM: TIMESTEP
11000
ITEM: NUMBER OF ATOMS
30
ITEM: BOX BOUNDS pp pp pp
-5.7758099999999999e+00 5.7758099999999999e+00
-5.7758099999999999e+00 5.7758099999999999e+00
-5.7758099999999999e+00 5.7758099999999999e+00
ITEM: ATOMS id mol type xu yu zu 
1 1 1 -2.86649 17.8539 -17.8178 
2 1 1 -2.4498 17.9735 -18.6602 
3 1 1 -1.86187 18.7623 -18.8583 
4 1 1 -1.07858 19.0814 -18.4237 
5 1 1 -1.08101 19.4521 -17.5284 
6 1 1 -0.435538 19.0589 -16.8922 
7 1 1 -0.171822 18.2336 -17.3128 
8 1 1 -0.544115 17.5205 -17.83 
9 1 1 -0.494828 16.5343 -17.7974 
10 1 1 -0.647431 15.6415 -17.5811 
11 1 1 -0.438437 14.7109 -17.4333 
12 1 1 -0.343984 14.1472 -16.6979 
13 1 1 -0.347343 13.359 -16.1638 
14 1 1 0.552377 13.0853 -16.0617 
15 1 1 1.14953 12.7674 -16.7181 
16 1 1 1.88271 12.4667 -17.2328 
17 1 1 2.48725 13.2242 -17.1774 
18 1 1 2.86663 14.1093 -17.4247 
19 1 1 3.39904 14.8608 -17.315 
20 1 1 2.73306 15.5113 -17.4331 
21 1 1 2.72791 15.8185 -18.326 
22 1 1 1.84531 16.0222 -18.6784 
23 1 1 0.944617 15.5644 -18.8308 
24 1 1 0.299006 16.0099 -19.4001 
25 1 1 1.01932 16.2372 -20.0602 
26 1 1 1.89976 16.3152 -20.4724 
27 1 1 2.52824 16.7368 -21.0658 
28 1 1 3.05915 17.2096 -21.6968 
29 1 1 3.49517 18.0166 -21.8867 
30 1 1 3.55788 18.8887 -22.2563 
ITEM: TIMESTEP
12000
ITEM: NUMBER OF ATOMS
30
ITEM: BOX BOUNDS pp pp pp
-5.7758099999999999e+00 5.7758099999999999e+00
-5.7758099999999999e+00 5.7758099999999999e+00
-5.7758099999999999e+00 5.7758099999999999e+00
ITEM: ATOMS id mol type xu yu zu 
1 1 1 -2.67689 17.8118 -17.7846 
2 1 1 -2.56307 17.9121 -18.714 
3 1 1 -2.16442 18.6895 -18.302 
4 1 1 -1.16009 18.7053 -18.2005 
5 1 1 -0.990183 19.5855 -17.839 
6 1 1 -0.607968 19.329 -17.0108 
7 1 1 -0.132709 18.4831 -17.1602 
8 1 1 -0.658397 17.6802 -17.1183 
9 1 1 -0.785499 16.8498 -17.5966 
10 1 1 -0.661917 15.9666 -17.1863 
11 1 1 -0.775995 15.2078 -16.6225 
12 1 1 -0.595928 14.2037 -16.5957 
13 1 1 -0.0163851 13.3769 -16.5885 
14 1 1 0.509638 12.57 -16.4731 
15 1 1 1.35149 12.706 -16.9587 
16 1 1 1.89814 12.6574 -17.7034 
17 1 1 2.55642 13.1294 -17.2238 
18 1 1 3.11958 13.9249 -17.1433 
19 1 1 3.55455 14.7871 -17.3807 
20 1 1 2.80554 15.392 -17.1688 
21 1 1 2.57687 15.4956 -18.0791 
22 1 1 1.69794 15.7409 -18.4801 
23 1 1 0.814336 15.5277 -18.7843 
24 1 1 0.810934 16.4293 -19.1507 
25 1 1 0.740967 16.6315 -20.1285 
26 1 1 1.6312 16.7667 -20.4532 
27 1 1 2.28487 16.9085 -21.1546 
28 1 1 2.77926 17.2253 -21.9256 
29 1 1 3.37122 17.9349 -22.0816 
30 1 1 3.18027 18.4643 -22.8224 
ITEM: TIMESTEP
13000
ITEM: NUMBER OF ATOMS
30
ITEM: BOX BOUNDS pp pp pp
-5.7758099999999999e+00 5.7758099999999999e+00
-5.7758099999999999e+00 5.7758099999999999e+00
-5.7758099999999999e+00 5.7758099999999999e+00
ITEM: ATOMS id mol type xu yu zu 
1 1 1 -2.36513 18.0006 -17.6083 
2 1 1 -2.30476 18.1157 -18.5633 
3 1 1 -2.32382 19.0433 -18.7441 
4 1 1 -1.34256 19.1674 -18.6031 
5 1 1 -0.700901 19.417 -17.9243 
6 1 1 -0.182414 19.2982 -17.0972 
7 1 1 -0.0411617 18.3222 -17.2012 
8 1 1 -0.841857 17.8206 -16.9272 
9 1 1 -0.524764 16.9417 -17.0698 
10 1 1 -0.681246 15.9922 -17.1033 
11 1 1 -0.21731 15.1967 -16.8094 
12 1 1 -0.127861 14.3522 -16.3666 
13 1 1 0.455345 13.6363 -16.1285 
14 1 1 0.56538 12.7992 -16.594 
15 1 1 1.35233 12.4115 -16.9883 
16 1 1 1.7541 12.8328 -17.8079 
17 1 1 2.61956 13.0543 -17.3523 
18 1 1 3.19091 13.8321 -17.3936 
19 1 1 3.46022 14.6974 -17.7277 
20 1 1 2.98721 15.5699 -17.5979 
21 1 1 2.23296 15.4757 -18.2617 
22 1 1 1.41716 15.2916 -18.7749 
23 1 1 0.576228 15.766 -18.7695 
24 1 1 0.718367 16.3622 -19.4992 
25 1 1 1.24482 16.8484 -20.1918 
26 1 1 2.0678 16.7137 -20.6876 
27 1 1 2.20629 17.3851 -21.3215 
28 1 1 2.78165 17.0991 -22.08 
29 1 1 3.41248 17.2874 -22.7796 
30 1 1 3.78357 17.8705 -23.4167 
ITEM: TIMESTEP
14000
ITEM: NUMBER OF ATOMS
30
ITEM: BOX BOUNDS pp pp pp
-5.7758099999999999e+00 5.7758099999999999e+00
-5.7758099999999999e+00 5.7758099999999999e+00
-5.7758099999999999e+00 5.7758099999999999e+00
ITEM: ATOMS id mol type xu yu zu 
1 1 1 -1.90648 17.851 -17.5268 
2 1 1 -2.49806 18.1966 -18.2044 
3 1 1 -2.32774 19.1144 -18.347 
4 1 1 -1.50923 19.6444 -18.2832 
5 1 1 -0.6947 19.3828 -17.8586 
6 1 1 -0.314622 18.8297 -17.1735 
7 1 1 -0.284532 17.9025 -17.3433 
8 1 1 -0.639008 17.2527 -16.6982 
9 1 1 -1.09529 16.5187 -17.1562 
10 1 1 -0.713231 15.7509 -17.597 
11 1 1 -0.245112 14.9335 -17.3933 
12 1 1 -0.0356983 14.4324 -16.6177 
13 1 1 0.0616641 13.4716 -16.3606 
14 1 1 0.452633 12.7387 -16.899 
15 1 1 1.38349 13.0025 -16.8959 
16 1 1 1.93309 12.5231 -17.5192 
17 1 1 2.53508 13.0005 -18.0882 
18 1 1 2.92685 13.8714 -18.0985 
19 1 1 3.31963 14.66 -17.9051 
20 1 1 3.22742 15.5479 -17.4779 
21 1 1 2.3007 15.7763 -17.6477 
22 1 1 1.62023 15.3382 -18.2295 
23 1 1 1.12736 16.0923 -18.6129 
24 1 1 0.774319 16.6295 -19.3248 
25 1 1 1.1088 16.9703 -20.1739 
26 1 1 1.62623 16.6111 -20.8864 
27 1 1 2.00663 17.3798 -21.3639 
28 1 1 2.7578 17.738 -21.8435 
29 1 1 3.42619 17.6794 -22.531 
30 1 1 3.34296 18.1625 -23.3368 
ITEM: TIMESTEP
15000
ITEM: NUMBER OF ATOMS
30
ITEM: BOX BOUNDS pp pp pp
-5.7758099999999999e+00 5.7758099999999999e+00
-5.7758099999999999e+00 5.7758099999999999e+00
-5.7758099999999999e+00 5.7758099999999999e+00
ITEM: ATOMS id mol type xu yu zu 
1 1 1 -1.78983 17.5185 -17.3766 
2 1 1 -2.33895 18.0545 -17.9583 
3 1 1 -2.1221 18.9548 -18.1446 
4 1 1 -1.48967 19.6564 -18.1438 
5 1 1 -0.910325 19.3991 -17.4118 
6 1 1 -0.186144 18.7269 -17.4162 
7 1 1 -0.0656868 17.9125 -16.9092 
8 1 1 -0.45236 17.2006 -16.3684 
9 1 1 -0.379701 16.2485 -16.403 
10 1 1 -0.392607 15.8681 -17.2719 
11 1 1 0.277063 15.207 -17.3441 
12 1 1 0.152267 14.3747 -16.8163 
13 1 1 -0.0572301 13.4928 -16.4912 
14 1 1 0.602818 13.0157 -16.9588 
15 1 1 1.54147 12.6586 -16.9375 
16 1 1 2.13189 12.6762 -17.7164 
17 1 1 2.78893 13.0974 -18.253 
18 1 1 2.58927 14.044 -18.2904 
19 1 1 3.07701 14.8815 -18.2676 
20 1 1 3.1945 15.5541 -17.6184 
21 1 1 2.34045 15.6084 -17.219 
22 1 1 1.65274 15.8107 -17.9166 
23 1 1 1.55126 16.3128 -18.7835 
24 1 1 1.10485 16.4232 -19.5916 
25 1 1 0.788975 17.2411 -20.0137 
26 1 1 1.1842 17.2283 -20.9118 
27 1 1 1.75466 17.6369 -21.5638 
28 1 1 2.62562 17.7808 -21.8494 
29 1 1 3.02204 17.5253 -22.6771 
30 1 1 2.5628 18.0584 -23.3254 
ITEM: TIMESTEP
16000
ITEM: NUMBER OF ATOMS
30
ITEM: BOX BOUNDS pp pp pp
-5.7758099999999999e+00 5.7758099999999999e+00
-5.7758099999999999e+00 5.7758099999999999e+00
-5.7758099999999999e+00 5.7758099999999999e+00
ITEM: ATOMS id mol type xu yu zu 
1 1 1 -1.80436 17.6869 -17.3921 
2 1 1 -2.37454 18.4736 -17.3125 
3 1 1 -2.127 19.288 -17.7493 
4 1 1 -1.26398 19.0655 -18.0006 
5 1 1 -0.49259 19.397 -17.5337 
6 1 1 0.151089 18.6895 -17.278 
7 1 1 -0.00536924 18.3412 -16.4083 
8 1 1 -0.28725 17.4679 -16.2731 
9 1 1 -0.374562 16.5549 -15.9766 
10 1 1 -0.693217 15.8848 -16.6556 
11 1 1 0.117775 15.4547 -16.8646 
12 1 1 -0.0633326 14.4876 -16.6677 
13 1 1 -0.313833 13.5574 -16.644 
14 1 1 0.564451 13.14 -16.983 
15 1 1 1.5175 13.0848 -16.9353 
16 1 1 1.88411 12.5439 -17.6205 
17 1 1 2.1704 13.1578 -18.3644 
18 1 1 2.47257 14.0392 -18.3023 
19 1 1 3.06317 14.743 -18.1829 
20 1 1 3.30835 15.5784 -17.7415 
21 1 1 2.41411 15.619 -17.2166 
22 1 1 1.75266 15.7909 -17.9387 
23 1 1 1.44214 16.5449 -18.5302 
24 1 1 1.39144 16.3778 -19.457 
25 1 1 0.793912 17.038 -19.8454 
26 1 1 1.13662 17.2259 -20.6878 
27 1 1 1.48707 17.8552 -21.2823 
28 1 1 2.3398 18.0253 -21.6936 
29 1 1 3.11355 17.6801 -22.1718 
30 1 1 3.02348 17.7497 -23.1103 
ITEM: TIMESTEP
17000
ITEM: NUMBER OF ATOMS
30
ITEM: BOX BOUNDS pp pp pp
-5.7758099999999999e+00 5.7758099999999999e+00
-5.7758099999999999e+00 5.7758099999999999e+00
-5.7758099999999999e+00 5.7758099999999999e+00
ITEM: ATOMS id mol type xu yu zu 
1 1 1 -1.73485 17.8501 -17.0924 
2 1 1 -2.18745 18.6191 -16.726 
3 1 1 -2.04213 19.2968 -17.47 
4 1 1 -1.12882 19.3811 -17.7632 
5 1 1 -0.286121 19.2707 -17.2477 
6 1 1 0.0287162 18.8247 -16.3841 
7 1 1 0.154103 17.8486 -16.1362 
8 1 1 0.294032 16.9717 -16.5775 
9 1 1 -0.281092 16.3494 -16.1905 
10 1 1 -0.293236 15.4873 -16.6174 
11 1 1 0.413349 14.8706 -16.8582 
12 1 1 0.327604 14.0977 -16.3506 
13 1 1 -0.218979 13.3185 -16.5802 
14 1 1 0.379922 12.8686 -17.2215 
15 1 1 1.1524 12.3415 -17.4223 
16 1 1 1.60199 12.5 -18.2376 
17 1 1 2.16766 13.2409 -18.4611 
18 1 1 2.57488 14.1195 -18.5156 
19 1 1 3.21988 14.8428 -18.2522 
20 1 1 2.86698 15.7323 -18.0084 
21 1 1 2.35452 15.9112 -17.1278 
22 1 1 1.50531 15.8431 -17.634 
23 1 1 0.952409 16.376 -18.1883 
24 1 1 0.972573 16.7014 -19.0449 
25 1 1 0.79715 17.1831 -19.8782 
26 1 1 0.822476 17.7181 -20.7452 
27 1 1 1.44954 17.6136 -21.4325 
28 1 1 2.33502 17.8166 -21.6652 
29 1 1 2.93328 17.2624 -22.1675 
30 1 1 2.49098 17.2393 -23.0086 
ITEM: TIMESTEP
18000
ITEM: NUMBER OF ATOMS
30
ITEM: BOX BOUNDS pp pp pp
-5.7758099999999999e+00 5.7758099999999999e+00
-5.7758099999999999e+00 5.7758099999999999e+00
-5.7758099999999999e+00 5.7758099999999999e+00
ITEM: ATOMS id mol type xu yu zu 
1 1 1 -1.81255 17.6212 -17.1785 
2 1 1 -2.10088 18.4063 -17.7167 
3 1 1 -1.81019 19.1424 -17.1478 
4 1 1 -1.00145 18.9449 -17.5249 
5 1 1 -0.329857 19.27 -16.8618 
6 1 1 -0.286455 18.6495 -16.1221 
7 1 1 0.243998 17.7876 -16.416 
8 1 1 -0.454489 17.3561 -16.929 
9 1 1 -0.205942 16.5837 -16.3817 
10 1 1 -0.158328 15.8252 -16.9697 
11 1 1 0.297228 15.0596 -16.595 
12 1 1 0.198542 14.1485 -16.197 
13 1 1 0.157866 13.503 -16.8853 
14 1 1 0.760621 12.7604 -16.843 
15 1 1 1.59414 12.3166 -17.0639 
16 1 1 1.75461 12.6014 -17.9812 
17 1 1 1.87967 13.5285 -18.0975 
18 1 1 2.79783 13.7019 -18.2418 
19 1 1 3.32555 14.4257 -17.9698 
20 1 1 3.04161 15.3381 -17.9504 
21 1 1 2.37909 15.7764 -17.3875 
22 1 1 1.61904 15.618 -17.9438 
23 1 1 1.41178 16.4142 -18.3769 
24 1 1 1.40316 16.467 -19.3517 
25 1 1 0.930185 16.8235 -20.0531 
26 1 1 1.07264 17.1552 -20.9628 
27 1 1 1.67844 17.7058 -21.4812 
28 1 1 2.56788 17.9887 -21.4753 
29 1 1 3.04974 17.3301 -22.0354 
30 1 1 2.86859 16.6901 -22.7988 
ITEM: TIMESTEP
19000
ITEM: NUMBER OF ATOMS
30
ITEM: BOX BOUNDS pp pp pp
-5.7758099999999999e+00 5.7758099999999999e+00
-5.7758099999999999e+00 5.7758099999999999e+00
-5.7758099999999999e+00 5.7758099999999999e+00
ITEM: ATOMS id mol type xu yu zu 
1 1 1 -1.96196 17.139 -16.8201 
2 1 1 -1.79078 18.0132 -17.1855 
3 1 1 -1.88498 18.9876 -17.2049 
4 1 1 -1.03346 19.285 -17.4902 
5 1 1 -0.417251 19.3701 -16.7373 
6 1 1 -0.173679 18.5373 -16.3304 
7 1 1 0.296017 17.8472 -16.8298 
8 1 1 -0.332728 17.1346 -16.7836 
9 1 1 -0.284876 16.3604 -16.2119 
10 1 1 0.211886 15.7862 -16.8237 
11 1 1 0.154438 14.9441 -16.3116 
12 1 1 0.216366 14.0645 -15.978 
13 1 1 0.4404 13.4386 -16.7086 
14 1 1 0.873743 12.6443 -16.8823 
15 1 1 1.60367 12.0794 -17.1892 
16 1 1 2.06621 12.4508 -17.8979 
17 1 1 2.2864 13.4084 -17.7708 
18 1 1 3.1133 13.6955 -18.1793 
19 1 1 3.16009 14.4095 -17.587 
20 1 1 2.94931 15.3331 -17.388 
21 1 1 2.10963 15.6433 -17.199 
22 1 1 1.47534 15.4274 -17.9047 
23 1 1 1.11233 15.9538 -18.6675 
24 1 1 1.67598 16.372 -19.4111 
25 1 1 1.45749 16.7672 -20.3095 
26 1 1 1.25937 17.242 -21.158 
27 1 1 1.5835 17.7922 -21.8382 
28 1 1 2.48837 17.8416 -21.6117 
29 1 1 3.36469 17.5044 -21.7306 
30 1 1 3.33092 16.5936 -21.989 
ITEM: TIMESTEP
20000
ITEM: NUMBER OF ATOMS
30
ITEM: BOX BOUNDS pp pp pp
-5.7758099999999999e+00 5.7758099999999999e+00
-5.7758099999999999e+00 5.7758099999999999e+00
-5.7758099999999999e+00 5.7758099999999999e+00
ITEM: ATOMS id mol type xu yu zu 
1 1 1 -2.17537 17.3578 -17.0538 
2 1 1 -2.5625 18.1365 -17.4733 
3 1 1 -1.87867 18.7522 -17.7863 
4 1 1 -1.31191 19.2217 -17.1898 
5 1 1 -0.46708 19.148 -16.7346 
6 1 1 0.0342309 18.5443 -16.1649 
7 1 1 0.161269 17.6539 -16.465 
8 1 1 -0.154529 16.7654 -16.5607 
9 1 1 -0.614803 16.1913 -15.9373 
10 1 1 -0.198812 15.3551 -16.2015 
11 1 1 -0.154674 14.4721 -15.8015 
12 1 1 0.480499 13.7651 -15.8026 
13 1 1 0.607109 13.5747 -16.7312 
14 1 1 0.651732 12.5893 -16.6943 
15 1 1 1.32203 11.9918 -17.0515 
16 1 1 2.01078 12.3782 -17.5994 
17 1 1 2.2692 13.2299 -17.9467 
18 1 1 2.91711 13.9348 -18.1628 
19 1 1 3.3981 14.7238 -17.8602 
20 1 1 3.02559 15.3951 -17.2368 
21 1 1 2.1065 15.0776 -17.3186 
22 1 1 1.44093 15.24 -17.9482 
23 1 1 0.983117 15.6907 -18.6426 
24 1 1 1.33727 15.9921 -19.472 
25 1 1 1.09981 16.0452 -20.388 
26 1 1 1.01121 16.6625 -21.0892 
27 1 1 1.45488 17.3843 -21.6359 
28 1 1 2.3604 17.6829 -21.6778 
29 1 1 3.02129 16.9604 -21.5718 
30 1 1 3.944 16.813 -21.8559 
ITEM: TIMESTEP
21000
ITEM: NUMBER OF ATOMS
30
ITEM: BOX BOUNDS pp pp pp
-5.7758099999999999e+00 5.7758099999999999e+00
-5.7758099999999999e+00 5.7758099999999999e+00
-5.7758099999999999e+00 5.7758099999999999e+00
ITEM: ATOMS id mol type xu yu zu 
1 1 1 -2.52807 17.3491 -16.5877 
2 1 1 -2.48633 18.0375 -17.1802 
3 1 1 -1.80282 18.3912 -17.8054 
4 1 1 -1.07979 18.8808 -17.3557 
5 1 1 -0.648554 19.2697 -16.6539 
6 1 1 -0.199205 18.6827 -16.0456 
7 1 1 -0.11523 17.8454 -16.5227 
8 1 1 -0.512135 17.08 -16.1459 
9 1 1 -0.997748 16.1947 -15.8756 
10 1 1 -0.408431 15.4726 -16.0262 
11 1 1 0.179986 14.6789 -15.8439 
12 1 1 0.650526 13.876 -15.9257 
13 1 1 0.796777 13.565 -16.8431 
14 1 1 0.781288 12.6466 -16.5999 
15 1 1 1.47795 12.0466 -16.8901 
16 1 1 1.85906 12.5343 -17.6287 
17 1 1 2.10836 13.2528 -18.1434 
18 1 1 2.87304 13.8246 -18.1271 
19 1 1 3.38904 14.2588 -17.4272 
20 1 1 2.79424 14.7113 -16.7812 
21 1 1 1.92535 15.0423 -17.0041 
22 1 1 1.30073 15.4133 -17.6014 
23 1 1 1.13849 15.4021 -18.5676 
24 1 1 1.46055 15.9953 -19.2132 
25 1 1 0.952704 16.3641 -19.9631 
26 1 1 1.4899 16.3026 -20.7391 
27 1 1 1.43648 17.0695 -21.2684 
28 1 1 2.21979 17.0114 -21.8146 
29 1 1 3.10575 17.2199 -21.4649 
30 1 1 4.03315 17.5566 -21.6093 
ITEM: TIMESTEP
22000
ITEM: NUMBER OF ATOMS
30
ITEM: BOX BOUNDS pp pp pp
-5.7758099999999999e+00 5.7758099999999999e+00
-5.7758099999999999e+00 5.7758099999999999e+00
-5.7758099999999999e+00 5.7758099999999999e+00
ITEM: ATOMS id mol type xu yu zu 
1 1 1 -2.63839 17.2773 -16.8252 
2 1 1 -2.65083 17.3251 -17.7822 
3 1 1 -2.04722 18.02 -18.1353 
4 1 1 -1.17698 18.028 -17.6941 
5 1 1 -0.961404 18.9271 -17.4909 
6 1 1 -0.503514 18.8938 -16.627 
7 1 1 -0.126728 18.0806 -16.2927 
8 1 1 -0.529524 17.279 -16.0337 
9 1 1 -0.793376 16.3604 -16.2322 
10 1 1 -0.687731 15.4118 -16.0367 
11 1 1 0.0144891 14.7924 -15.8614 
12 1 1 0.985666 14.71 -15.8693 
13 1 1 1.01764 13.9812 -16.4258 
14 1 1 0.643244 13.0699 -16.4522 
15 1 1 1.14711 12.589 -17.0949 
16 1 1 1.97679 12.5167 -17.5217 
17 1 1 2.05672 13.1378 -18.2648 
18 1 1 2.82865 13.5507 -17.8923 
19 1 1 3.02308 13.8284 -16.9637 
20 1 1 2.77257 14.6771 -16.6283 
21 1 1 2.32905 15.1574 -17.2991 
22 1 1 1.56586 15.5443 -17.7878 
23 1 1 1.1413 15.2507 -18.6202 
24 1 1 1.36076 15.6669 -19.4206 
25 1 1 1.04338 16.369 -19.9865 
26 1 1 1.01981 17.1703 -20.4895 
27 1 1 1.11269 17.4421 -21.448 
28 1 1 1.95056 16.9968 -21.5361 
29 1 1 2.80851 17.5271 -21.4832 
30 1 1 3.65383 17.8246 -21.1293 
ITEM: TIMESTEP
23000
ITEM: NUMBER OF ATOMS
30
ITEM: BOX BOUNDS pp pp pp
-5.7758099999999999e+00 5.7758099999999999e+00
-5.7758099999999999e+00 5.7758099999999999e+00
-5.7758099999999999e+00 5.7758099999999999e+00
ITEM: ATOMS id mol type xu yu zu 
1 1 1 -2.12106 17.0655 -17.1382 
2 1 1 -2.57594 17.6763 -17.7026 
3 1 1 -1.91133 18.1056 -18.2293 
4 1 1 -1.08603 18.4678 -17.9203 
5 1 1 -0.781189 19.0431 -17.1957 
6 1 1 -0.539197 18.8097 -16.2962 
7 1 1 -0.135331 17.9889 -16.4569 
8 1 1 -0.530244 17.1686 -16.0921 
9 1 1 -0.941596 16.2948 -15.8696 
10 1 1 -0.766617 15.4442 -15.4879 
11 1 1 0.0641413 15.0612 -15.7864 
12 1 1 0.955028 14.8662 -15.7791 
13 1 1 0.983808 14.1935 -16.4779 
14 1 1 0.917141 13.2467 -16.8251 
15 1 1 0.813762 12.3437 -17.0995 
16 1 1 1.67343 12.4266 -17.6256 
17 1 1 2.09487 13.0153 -18.2098 
18 1 1 2.78774 13.5869 -17.9607 
19 1 1 2.90703 13.8609 -17.0432 
20 1 1 2.57423 14.721 -16.9948 
21 1 1 1.97807 15.3663 -17.3395 
22 1 1 1.36801 15.7217 -18.0381 
23 1 1 0.887934 15.4179 -18.7982 
24 1 1 1.32462 15.7129 -19.6056 
25 1 1 1.43175 16.1947 -20.413 
26 1 1 1.24712 17.0721 -20.7098 
27 1 1 1.25809 17.3871 -21.6228 
28 1 1 2.20514 17.0296 -21.6371 
29 1 1 2.95821 17.527 -21.8965 
30 1 1 3.85885 17.6786 -21.5393 
ITEM: TIMESTEP
24000
ITEM: NUMBER OF ATOMS
30
ITEM: BOX BOUNDS pp pp pp
-5.7758099999999999e+00 5.7758099999999999e+00
-5.7758099999999999e+00 5.7758099999999999e+00
-5.7758099999999999e+00 5.7758099999999999e+00
ITEM: ATOMS id mol type xu yu zu 