ITEM: TIMESTEP
0
ITEM: NUMBER OF ATOMS
30
ITEM: BOX BOUNDS pp pp pp
-5.7758099999999999e+00 5.7758099999999999e+00
-5.7758099999999999e+00 5.7758099999999999e+00
-5.7758099999999999e+00 5.7758099999999999e+00
ITEM: ATOMS id mol type x y z 
1 1 1 -2.34988 -5.70101 4.37608 
2 1 1 -1.95165 -4.85413 4.4797 
3 1 1 -1.20309 -4.53856 4.00281 
4 1 1 -0.959464 -3.76383 4.49595 
5 1 1 -0.768 -3.42413 5.34455 
6 1 1 -0.722075 -3.97103 -5.40346 
7 1 1 -0.178618 -4.75676 -5.45228 
8 1 1 -0.615899 -5.56012 -5.20676 
9 1 1 -1.07976 5.52313 5.62746 
10 1 1 -1.60855 4.70982 5.67868 
11 1 1 -1.1176 4.135 -5.22322 
12 1 1 -0.454026 3.51344 -4.9282 
13 1 1 0.355148 3.1351 -4.5124 
14 1 1 1.00004 2.45963 -4.76675 
15 1 1 1.637 2.39552 -4.05783 
16 1 1 2.41361 2.0089 -4.47517 
17 1 1 3.12617 2.65163 -4.73804 
18 1 1 3.26016 2.67221 -5.68169 
19 1 1 3.68597 3.04614 5.07924 
20 1 1 3.60617 3.99639 5.18221 
21 1 1 2.62396 4.03572 5.20522 
22 1 1 1.78747 3.86741 4.76246 
23 1 1 1.31244 4.28053 4.01791 
24 1 1 1.2312 4.35535 3.07464 
25 1 1 1.98516 5.0279 3.05338 
26 1 1 2.03383 5.40157 2.19537 
27 1 1 2.86334 -5.66074 2.16972 
28 1 1 3.21446 -5.20633 1.39435 
29 1 1 2.66312 -4.48844 1.06461 
30 1 1 3.17853 -3.68451 1.23774 
ITEM: TIMESTEP
1000
ITEM: NUMBER OF ATOMS
30
ITEM: BOX BOUNDS pp pp pp
-5.7758099999999999e+00 5.7758099999999999e+00
-5.7758099999999999e+00 5.7758099999999999e+00
-5.7758099999999999e+00 5.7758099999999999e+00
ITEM: ATOMS id mol type x y z 
1 1 1 -2.58119 5.5728 3.64866 
2 1 1 -2.16334 -5.18929 3.91354 
3 1 1 -1.52371 -4.47263 4.23637 
4 1 1 -0.977801 -3.69017 4.46409 
5 1 1 -1.07946 -3.79355 5.39408 
6 1 1 -0.576679 -4.20764 -5.43107 
7 1 1 -0.200936 -5.06078 -5.67929 
8 1 1 -0.846425 -5.52728 -5.12891 
9 1 1 -1.28525 5.50887 5.74465 
10 1 1 -1.36246 4.58622 5.71858 
11 1 1 -0.646368 4.10158 -5.39964 
12 1 1 -0.172606 3.80277 -4.57661 
13 1 1 0.708454 3.56951 -4.83045 
14 1 1 0.783001 2.61873 -4.81151 
15 1 1 1.42549 2.4386 -4.16673 
16 1 1 2.22232 2.13619 -4.64043 
17 1 1 2.8012 2.81982 -4.9324 
18 1 1 3.38197 2.78079 -5.74552 
19 1 1 4.01632 3.33204 5.35354 
20 1 1 3.57991 3.8743 4.69803 
21 1 1 2.68552 4.03408 4.9374 
22 1 1 2.07768 3.58068 4.36665 
23 1 1 1.23246 3.69466 3.87974 
24 1 1 1.04417 4.19017 3.03516 
25 1 1 1.8191 4.50089 2.55399 
26 1 1 1.83517 5.37876 2.17948 
27 1 1 2.5239 -5.48351 2.1535 
28 1 1 2.38433 -4.95984 1.3279 
29 1 1 2.55316 -4.04009 1.0189 
30 1 1 3.29226 -3.54658 1.37323 
ITEM: TIMESTEP
2000
ITEM: NUMBER OF ATOMS
30
ITEM: BOX BOUNDS pp pp pp
-5.7758099999999999e+00 5.7758099999999999e+00
-5.7758099999999999e+00 5.7758099999999999e+00
-5.7758099999999999e+00 5.7758099999999999e+00
ITEM: ATOMS id mol type x y z 
1 1 1 -2.48997 -5.55675 3.67961 
2 1 1 -2.50953 -4.63253 3.9494 
3 1 1 -1.66313 -4.2233 4.16033 
4 1 1 -1.00192 -3.71285 4.57944 
5 1 1 -0.935698 -3.34931 5.46037 
6 1 1 -0.461932 -3.82717 -5.42697 
7 1 1 -0.00675926 -4.61809 5.7083 
8 1 1 0.179122 -5.52792 -5.59121 
9 1 1 -0.715981 5.72565 5.77343 
10 1 1 -1.23984 4.96331 -5.47867 
11 1 1 -1.10501 4.04633 -5.35494 
12 1 1 -0.369943 3.47146 -5.2691 
13 1 1 0.605591 3.49961 -5.40339 
14 1 1 0.907556 2.66936 -5.05805 
15 1 1 1.50898 2.14894 -4.46888 
16 1 1 2.3597 1.71665 -4.58472 
17 1 1 2.71189 2.21092 -5.35107 
18 1 1 3.4172 2.77544 -5.58775 
19 1 1 3.75579 3.13658 5.13463 
20 1 1 3.237 3.59438 4.47417 
21 1 1 2.33734 3.99591 4.66609 
22 1 1 1.56189 3.50267 4.40452 
23 1 1 0.907963 3.32121 3.7211 
24 1 1 0.863874 3.84231 2.9724 
25 1 1 1.01667 4.75436 2.67324 
26 1 1 1.62804 5.18647 2.10923 
27 1 1 2.18778 5.61966 1.4791 
28 1 1 2.42661 -5.29375 0.774776 
29 1 1 2.62757 -4.47252 1.23258 
30 1 1 3.39288 -4.11756 1.60322 
ITEM: TIMESTEP
3000
ITEM: NUMBER OF ATOMS
30
ITEM: BOX BOUNDS pp pp pp
-5.7758099999999999e+00 5.7758099999999999e+00
-5.7758099999999999e+00 5.7758099999999999e+00
-5.7758099999999999e+00 5.7758099999999999e+00
ITEM: ATOMS id mol type x y z 
1 1 1 -3.05407 -5.28842 3.87863 
2 1 1 -2.6101 -4.59603 3.38722 
3 1 1 -2.19317 -3.90545 3.91262 
4 1 1 -1.42002 -3.43372 4.20445 
5 1 1 -1.46927 -3.48508 5.14096 
6 1 1 -0.982637 -3.70499 -5.62699 
7 1 1 -0.353579 -4.31722 5.6161 
8 1 1 -0.0636901 -5.22484 5.72215 
9 1 1 -0.751335 5.64456 5.57391 
10 1 1 -1.30638 4.9622 -5.58502 
11 1 1 -1.10286 4.0402 -5.27659 
12 1 1 -0.626088 3.38564 -4.79747 
13 1 1 0.275313 2.96377 -4.94967 
14 1 1 1.08635 2.71653 -4.48006 
15 1 1 1.48754 1.87788 -4.34671 
16 1 1 1.96959 1.23962 -4.86514 
17 1 1 2.59141 1.92263 -5.1837 
18 1 1 3.33623 2.48458 -5.51136 
19 1 1 3.50151 2.7849 5.09286 
20 1 1 3.11446 3.30232 4.36587 
21 1 1 2.48224 3.94755 4.69548 
22 1 1 1.56378 4.01739 4.46361 
23 1 1 0.885395 4.11609 3.81116 
24 1 1 1.18054 3.79295 2.98103 
25 1 1 1.57292 4.48524 2.40018 
26 1 1 2.29946 5.12546 2.36145 
27 1 1 2.27241 5.66664 1.59695 
28 1 1 2.2582 -5.09223 0.926018 
29 1 1 2.62238 -4.5475 1.57625 
30 1 1 3.5676 -4.64133 1.77265 
ITEM: TIMESTEP
4000
ITEM: NUMBER OF ATOMS
30
ITEM: BOX BOUNDS pp pp pp
-5.7758099999999999e+00 5.7758099999999999e+00
-5.7758099999999999e+00 5.7758099999999999e+00
-5.7758099999999999e+00 5.7758099999999999e+00
ITEM: ATOMS id mol type x y z 
1 1 1 -2.88426 -5.13504 3.74243 
2 1 1 -2.46015 -4.43896 3.25645 
3 1 1 -2.36208 -3.74063 3.92561 
4 1 1 -1.51865 -3.71667 4.36705 
5 1 1 -1.36886 -3.62599 5.26617 
6 1 1 -0.559012 -3.50378 -5.7618 
7 1 1 0.162395 -4.02986 5.38847 
8 1 1 0.0315184 -4.87619 -5.72168 
9 1 1 -0.620609 -5.58967 5.76229 
10 1 1 -0.886708 5.0364 -5.5944 
11 1 1 -0.758944 4.16583 -5.19141 
12 1 1 -0.644663 3.31049 -4.71374 
13 1 1 0.275125 3.02321 -4.48302 
14 1 1 0.919576 2.34311 -4.44793 
15 1 1 1.47578 1.61312 -4.09913 
16 1 1 1.76058 1.23281 -4.94273 
17 1 1 2.21385 1.91122 -5.44114 
18 1 1 3.09591 2.03434 -5.7671 
19 1 1 3.25678 2.37209 4.89738 
20 1 1 3.14607 3.33344 4.83461 
21 1 1 2.26087 3.39976 5.27285 
22 1 1 1.71009 4.00329 4.6907 
23 1 1 1.19652 3.35134 4.22594 
24 1 1 1.2111 3.78651 3.35694 
25 1 1 1.7467 4.30753 2.70443 
26 1 1 2.59928 4.64611 2.48488 
27 1 1 2.33003 5.19776 1.71765 
28 1 1 2.21298 -5.53145 1.20013 
29 1 1 2.35575 -4.59782 1.41325 
30 1 1 3.2647 -4.49936 1.73096 
ITEM: TIMESTEP
5000
ITEM: NUMBER OF ATOMS
30
ITEM: BOX BOUNDS pp pp pp
-5.7758099999999999e+00 5.7758099999999999e+00
-5.7758099999999999e+00 5.7758099999999999e+00
-5.7758099999999999e+00 5.7758099999999999e+00
ITEM: ATOMS id mol type x y z 
1 1 1 -2.55478 -5.49402 3.91422 
2 1 1 -2.83811 -4.57545 3.76433 
3 1 1 -2.52127 -3.70938 3.99194 
4 1 1 -1.81936 -3.10813 4.27972 
5 1 1 -1.495 -3.64547 4.94367 
6 1 1 -0.907902 -3.49586 5.70537 
7 1 1 -0.0643581 -3.86045 5.5108 
8 1 1 -0.0921234 -4.81271 5.56215 
9 1 1 -0.523388 -5.62827 5.68783 
10 1 1 -0.769101 5.08659 -5.49407 
11 1 1 -0.978046 4.16538 -5.48369 
12 1 1 -0.451777 3.56356 -4.97901 
13 1 1 -0.104227 2.67702 -4.8498 
14 1 1 0.531428 2.11739 -4.3134 
15 1 1 1.36947 1.64068 -4.52186 
16 1 1 1.72831 1.50361 -5.42276 
17 1 1 2.68021 1.39956 -5.61066 
18 1 1 3.25705 2.16437 -5.66894 
19 1 1 3.18535 2.55034 5.02164 
20 1 1 3.09398 3.43667 5.37813 
21 1 1 2.20025 3.78111 5.62715 
22 1 1 1.71145 3.70862 4.7644 
23 1 1 0.99219 3.67756 4.13559 
24 1 1 0.792239 4.26757 3.38343 
25 1 1 1.5938 4.29922 2.85635 
26 1 1 2.39517 4.8259 2.72159 
27 1 1 2.70835 5.4588 2.05747 
28 1 1 2.25416 -5.45527 1.545 
29 1 1 2.40489 -4.55698 1.89154 
30 1 1 3.33199 -4.24126 1.85207 
ITEM: TIMESTEP
6000
ITEM: NUMBER OF ATOMS
30
ITEM: BOX BOUNDS pp pp pp
-5.7758099999999999e+00 5.7758099999999999e+00
-5.7758099999999999e+00 5.7758099999999999e+00
-5.7758099999999999e+00 5.7758099999999999e+00
ITEM: ATOMS id mol type x y z 
1 1 1 -2.66965 -5.45109 4.03644 
2 1 1 -2.3745 -4.72341 3.49145 
3 1 1 -2.36916 -3.78035 3.75006 
4 1 1 -1.64061 -3.16051 4.0478 
5 1 1 -1.36931 -3.40561 4.98061 
6 1 1 -0.489217 -3.33831 5.34777 
7 1 1 0.00468938 -4.14329 5.35251 
8 1 1 -0.363388 -5.07231 5.29493 
9 1 1 -0.53675 5.7047 -5.66876 
10 1 1 -0.668538 5.0732 -4.92824 
11 1 1 -0.826127 4.19207 -5.34243 
12 1 1 -0.759689 3.23114 -5.17575 
13 1 1 -0.108853 2.50429 -5.22497 
14 1 1 0.492013 1.9325 -4.76114 
15 1 1 1.38824 2.13038 -4.62147 
16 1 1 1.99039 1.5153 -5.00014 
17 1 1 2.1733 1.92362 5.71401 
18 1 1 3.0294 2.38923 5.52103 
19 1 1 2.87884 2.98015 4.78665 
20 1 1 2.74621 3.77616 5.33249 
21 1 1 1.88808 3.60856 5.7294 
22 1 1 1.20158 3.5706 5.06802 
23 1 1 0.936615 4.10353 4.28429 
24 1 1 0.71417 4.59394 3.47591 
25 1 1 1.51049 4.8083 2.99352 
26 1 1 2.44611 4.78402 2.7455 
27 1 1 2.77117 5.32952 2.05618 
28 1 1 2.12432 -5.5547 1.80726 
29 1 1 2.54272 -4.79048 2.20616 
30 1 1 2.85991 -3.88039 1.93527 
ITEM: TIMESTEP
7000
ITEM: NUMBER OF ATOMS
30
ITEM: BOX BOUNDS pp pp pp
-5.7758099999999999e+00 5.7758099999999999e+00
-5.7758099999999999e+00 5.7758099999999999e+00
-5.7758099999999999e+00 5.7758099999999999e+00
ITEM: ATOMS id mol type x y z 
1 1 1 -2.75692 -4.74975 3.90861 
2 1 1 -2.29271 -4.06234 3.43681 
3 1 1 -2.45426 -3.30629 4.0222 
4 1 1 -1.68915 -2.86674 4.43347 
5 1 1 -1.56861 -3.46559 5.16638 
6 1 1 -0.789669 -3.84565 5.55192 
7 1 1 -0.189905 -4.54567 5.36192 
8 1 1 -0.572375 -5.29405 4.88868 
9 1 1 -0.638034 5.53992 5.53055 
10 1 1 -0.756978 4.75712 -5.56442 
11 1 1 -0.901411 3.86016 -5.12853 
12 1 1 -0.653075 2.95923 -5.33102 
13 1 1 0.162322 2.46493 -5.3605 
14 1 1 0.728809 1.91136 -4.81819 
15 1 1 1.56488 1.88871 -4.39668 
16 1 1 2.3347 1.8137 -5.03298 
17 1 1 2.24605 2.14297 5.60732 
18 1 1 3.08327 2.53561 -5.77321 
19 1 1 3.30004 3.41932 5.50703 
20 1 1 2.63685 3.86687 -5.50989 
21 1 1 1.95096 3.75133 5.40318 
22 1 1 1.5752 3.58765 4.55872 
23 1 1 1.0992 4.41416 4.36416 
24 1 1 0.967614 4.42757 3.39199 
25 1 1 1.81011 4.85137 3.17339 
26 1 1 2.63118 4.66078 2.71053 
27 1 1 2.63937 4.9634 1.80374 
28 1 1 2.45177 -5.58847 1.78732 
29 1 1 2.46477 -4.80227 2.3701 
30 1 1 3.06042 -4.09751 2.19605 
ITEM: TIMESTEP
8000
ITEM: NUMBER OF ATOMS
30
ITEM: BOX BOUNDS pp pp pp
-5.7758099999999999e+00 5.7758099999999999e+00
-5.7758099999999999e+00 5.7758099999999999e+00
-5.7758099999999999e+00 5.7758099999999999e+00
ITEM: ATOMS id mol type x y z 
1 1 1 -3.07819 -4.86905 3.97827 
2 1 1 -2.14849 -4.59173 4.19885 
3 1 1 -1.92457 -3.64508 4.08574 
4 1 1 -1.4635 -3.06001 4.72615 
5 1 1 -1.46523 -3.46246 5.5981 
6 1 1 -1.27357 -4.31565 -5.56049 
7 1 1 -0.369995 -4.49789 5.66972 
8 1 1 -0.371756 -5.2734 5.09968 
9 1 1 -0.898371 5.51914 5.31996 
10 1 1 -0.994465 4.79193 -5.60398 
11 1 1 -0.72838 3.8542 -5.56627 
12 1 1 -0.860754 3.06672 -5.02054 
13 1 1 -0.368402 2.21472 -4.90009 
14 1 1 0.506975 1.90596 -4.74408 
15 1 1 1.3772 1.82435 -4.33514 
16 1 1 2.20126 2.2464 -4.62613 
17 1 1 2.61906 2.37577 -5.53783 
18 1 1 3.37912 2.47351 5.38186 
19 1 1 3.6964 3.33011 5.74578 
20 1 1 3.03648 4.07273 -5.56678 
21 1 1 2.16423 4.21865 5.54963 
22 1 1 1.59178 4.22603 4.76125 
23 1 1 1.21741 4.64555 3.99217 
24 1 1 1.01821 5.14932 3.23225 
25 1 1 1.76701 4.9734 2.6733 
26 1 1 2.68088 4.73058 2.42963 
27 1 1 2.96328 5.3252 1.69386 
28 1 1 2.32068 -5.50689 1.60059 
29 1 1 2.77331 -4.67462 1.66377 
30 1 1 2.98257 -3.84934 2.04347 
ITEM: TIMESTEP
9000
ITEM: NUMBER OF ATOMS
30
ITEM: BOX BOUNDS pp pp pp
-5.7758099999999999e+00 5.7758099999999999e+00
-5.7758099999999999e+00 5.7758099999999999e+00
-5.7758099999999999e+00 5.7758099999999999e+00
ITEM: ATOMS id mol type x y z 
1 1 1 -2.95312 -5.09922 4.49618 
2 1 1 -2.08501 -4.71546 4.28924 
3 1 1 -1.69349 -3.8685 4.07569 
4 1 1 -1.65173 -3.36708 4.93763 
5 1 1 -1.49047 -3.58591 -5.67736 
6 1 1 -1.10959 -4.32972 -5.20824 
7 1 1 -0.403624 -4.52883 -5.7682 
8 1 1 -0.797238 -5.16403 5.18853 
9 1 1 -0.739404 5.44835 5.17758 
10 1 1 -0.842588 4.80508 -5.63208 
11 1 1 -0.682327 4.02157 -5.04444 
12 1 1 -0.491399 3.05206 -5.12503 
13 1 1 -0.417872 2.13564 -4.83607 
14 1 1 0.374933 1.57662 -4.71595 
15 1 1 1.24756 1.23442 -4.99727 
16 1 1 2.11646 1.66642 -4.98312 
17 1 1 2.63671 1.95842 -5.72001 
18 1 1 3.32575 2.26092 5.2058 
19 1 1 3.38022 3.09802 5.62977 
20 1 1 2.87697 3.91014 5.71004 
21 1 1 2.01371 4.29998 -5.7302 
22 1 1 1.49723 4.05365 5.06186 
23 1 1 1.05386 4.37176 4.28965 
24 1 1 0.770218 4.94278 3.57273 
25 1 1 1.24547 4.81562 2.75013 
26 1 1 2.19943 4.71429 3.02693 
27 1 1 2.65338 5.37649 2.48002 
28 1 1 2.54302 -5.57799 1.72481 
29 1 1 3.21409 -4.90094 1.83437 
30 1 1 3.39809 -3.93425 1.74539 
ITEM: TIMESTEP
10000
ITEM: NUMBER OF ATOMS
30
ITEM: BOX BOUNDS pp pp pp
-5.7758099999999999e+00 5.7758099999999999e+00
-5.7758099999999999e+00 5.7758099999999999e+00
-5.7758099999999999e+00 5.7758099999999999e+00
ITEM: ATOMS id mol type x y z 
1 1 1 -2.68683 -5.46136 4.72146 
2 1 1 -1.93289 -5.04523 4.28126 
3 1 1 -1.80934 -4.23477 4.75801 
4 1 1 -1.40204 -3.45967 5.11996 
5 1 1 -1.35622 -3.8015 -5.49797 
6 1 1 -0.447121 -4.11804 -5.39479 
7 1 1 -0.259359 -4.85048 5.59799 
8 1 1 -0.821078 -5.58045 5.2563 
9 1 1 -0.516795 5.05449 5.39815 
10 1 1 -0.458135 4.39479 -5.41736 
11 1 1 -0.4568 3.39387 -5.42193 
12 1 1 -0.48967 2.63076 -4.80251 
13 1 1 -0.198975 1.73297 -4.67167 
14 1 1 0.775831 1.86789 -4.74296 
15 1 1 1.14796 1.07431 -5.10838 
16 1 1 1.99414 1.10562 -5.55011 
17 1 1 2.23127 2.02472 5.76198 
18 1 1 3.03035 2.36266 5.37068 
19 1 1 3.57507 3.02953 -5.70642 
20 1 1 3.00137 3.84918 -5.54892 
21 1 1 2.57087 4.50199 5.41556 
22 1 1 1.88545 4.57632 4.77021 
23 1 1 1.19695 4.33163 4.16279 
24 1 1 0.506432 4.43367 3.53845 
25 1 1 0.977443 4.97272 2.82186 
26 1 1 1.85806 4.58156 2.43683 
27 1 1 2.49447 5.28547 2.4461 
28 1 1 2.7404 5.62271 1.6132 
29 1 1 2.97559 -5.01778 1.38715 
30 1 1 3.4497 -4.19605 1.28462 
ITEM: TIMESTEP
11000
ITEM: NUMBER OF ATOMS
30
ITEM: BOX BOUNDS pp pp pp
-5.7758099999999999e+00 5.7758099999999999e+00
-5.7758099999999999e+00 5.7758099999999999e+00
-5.7758099999999999e+00 5.7758099999999999e+00
ITEM: ATOMS id mol type x y z 
1 1 1 -2.86649 -5.24931 5.28547 
2 1 1 -2.4498 -5.12977 4.44301 
3 1 1 -1.86187 -4.34099 4.24495 
4 1 1 -1.07858 -4.02184 4.67957 
5 1 1 -1.08101 -3.65113 5.57481 
6 1 1 -0.435538 -4.04432 -5.34057 
7 1 1 -0.171822 -4.86962 -5.76119 
8 1 1 -0.544115 -5.58274 5.27319 
9 1 1 -0.494828 4.98265 5.30583 
10 1 1 -0.647431 4.08993 5.52219 
11 1 1 -0.438437 3.15925 5.66991 
12 1 1 -0.343984 2.5956 -5.14632 
13 1 1 -0.347343 1.80734 -4.61215 
14 1 1 0.552377 1.53364 -4.51011 
15 1 1 1.14953 1.21581 -5.16649 
16 1 1 1.88271 0.915105 -5.68116 
17 1 1 2.48725 1.67259 -5.62573 
18 1 1 2.86663 2.55771 5.67851 
19 1 1 3.39904 3.30921 -5.7634 
20 1 1 2.73306 3.95966 5.67018 
21 1 1 2.72791 4.26687 4.77726 
22 1 1 1.84531 4.47053 4.42486 
23 1 1 0.944617 4.01275 4.27242 
24 1 1 0.299006 4.4583 3.70313 
25 1 1 1.01932 4.6856 3.04299 
26 1 1 1.89976 4.76355 2.63079 
27 1 1 2.52824 5.18519 2.0374 
28 1 1 3.05915 5.65798 1.40648 
29 1 1 3.49517 -5.08668 1.21653 
30 1 1 3.55788 -4.21453 0.846937 
ITEM: TIMESTEP
12000
ITEM: NUMBER OF ATOMS
30
ITEM: BOX BOUNDS pp pp pp
-5.7758099999999999e+00 5.7758099999999999e+00
-5.7758099999999999e+00 5.7758099999999999e+00
-5.7758099999999999e+00 5.7758099999999999e+00
ITEM: ATOMS id mol type x y z 
1 1 1 -2.67689 -5.29147 5.31866 
2 1 1 -2.56307 -5.19118 4.38928 
3 1 1 -2.16442 -4.41374 4.80125 
4 1 1 -1.16009 -4.39793 4.9027 
5 1 1 -0.990183 -3.51778 5.26427 
6 1 1 -0.607968 -3.77427 -5.45922 
7 1 1 -0.132709 -4.62013 -5.6086 
8 1 1 -0.658397 -5.42303 -5.56672 
9 1 1 -0.785499 5.29814 5.50663 
10 1 1 -0.661917 4.41501 -5.63468 
11 1 1 -0.775995 3.65621 -5.07085 
12 1 1 -0.595928 2.65211 -5.04405 
13 1 1 -0.0163851 1.82528 -5.0369 
14 1 1 0.509638 1.01834 -4.92145 
15 1 1 1.35149 1.15437 -5.40708 
16 1 1 1.89814 1.10579 5.3998 
17 1 1 2.55642 1.57776 -5.67221 
18 1 1 3.11958 2.37329 -5.59169 
19 1 1 3.55455 3.23547 5.72254 
20 1 1 2.80554 3.84037 -5.61714 
21 1 1 2.57687 3.94394 5.02411 
22 1 1 1.69794 4.18929 4.62309 
23 1 1 0.814336 3.97605 4.31889 
24 1 1 0.810934 4.87767 3.95252 
25 1 1 0.740967 5.07986 2.97478 
26 1 1 1.6312 5.21505 2.65008 
27 1 1 2.28487 5.35688 1.94861 
28 1 1 2.77926 5.67369 1.17763 
29 1 1 3.37122 -5.16829 1.02168 
30 1 1 3.18027 -4.63889 0.280803 
ITEM: TIMESTEP
13000
ITEM: NUMBER OF ATOMS
30
ITEM: BOX BOUNDS pp pp pp
-5.7758099999999999e+00 5.7758099999999999e+00
-5.7758099999999999e+00 5.7758099999999999e+00
-5.7758099999999999e+00 5.7758099999999999e+00
ITEM: ATOMS id mol type x y z 
1 1 1 -2.36513 -5.10263 5.49491 
2 1 1 -2.30476 -4.98753 4.53994 
3 1 1 -2.32382 -4.05999 4.35917 
4 1 1 -1.34256 -3.93588 4.50013 
5 1 1 -0.700901 -3.68619 5.17893 
6 1 1 -0.182414 -3.80508 -5.5456 
7 1 1 -0.0411617 -4.78108 -5.64955 
8 1 1 -0.841857 -5.28264 -5.37558 
9 1 1 -0.524764 5.39004 -5.5182 
10 1 1 -0.681246 4.44063 -5.55169 
11 1 1 -0.21731 3.64505 -5.25776 
12 1 1 -0.127861 2.80053 -4.81496 
13 1 1 0.455345 2.08464 -4.57684 
14 1 1 0.56538 1.24757 -5.04242 
15 1 1 1.35233 0.859907 -5.43669 
16 1 1 1.7541 1.28119 5.29533 
17 1 1 2.61956 1.50273 5.75098 
18 1 1 3.19091 2.28044 5.70962 
19 1 1 3.46022 3.14578 5.37555 
20 1 1 2.98721 4.01831 5.50529 
21 1 1 2.23296 3.92407 4.84158 
22 1 1 1.41716 3.74002 4.32834 
23 1 1 0.576228 4.21441 4.33379 
24 1 1 0.718367 4.8106 3.60403 
25 1 1 1.24482 5.2968 2.91141 
26 1 1 2.0678 5.16211 2.41563 
27 1 1 2.20629 -5.71813 1.78179 
28 1 1 2.78165 5.54752 1.02323 
29 1 1 3.41248 5.73579 0.323677 
30 1 1 3.78357 -5.23273 -0.31344 
ITEM: TIMESTEP
14000
ITEM: NUMBER OF ATOMS
30
ITEM: BOX BOUNDS pp pp pp
-5.7758099999999999e+00 5.7758099999999999e+00
-5.7758099999999999e+00 5.7758099999999999e+00
-5.7758099999999999e+00 5.7758099999999999e+00
ITEM: ATOMS id mol type x y z 
1 1 1 -1.90648 -5.25229 5.57645 
2 1 1 -2.49806 -4.90663 4.89883 
3 1 1 -2.32774 -3.98882 4.75621 
4 1 1 -1.50923 -3.4588 4.82008 
5 1 1 -0.6947 -3.72043 5.24467 
6 1 1 -0.314622 -4.27355 -5.62189 
7 1 1 -0.284532 -5.20074 -5.79163 
8 1 1 -0.639008 5.70106 -5.14655 
9 1 1 -1.09529 4.96713 -5.60455 
10 1 1 -0.713231 4.19923 5.50622 
11 1 1 -0.245112 3.38188 5.70997 
12 1 1 -0.0356983 2.88075 -5.06606 
13 1 1 0.0616641 1.91996 -4.80894 
14 1 1 0.452633 1.18707 -5.34734 
15 1 1 1.38349 1.45085 -5.34429 
16 1 1 1.93309 0.971505 5.58399 
17 1 1 2.53508 1.44888 5.01501 
18 1 1 2.92685 2.31974 5.00475 
19 1 1 3.31963 3.1084 5.19812 
20 1 1 3.22742 3.99625 5.62536 
21 1 1 2.3007 4.22469 5.45554 
22 1 1 1.62023 3.78661 4.87376 
23 1 1 1.12736 4.54068 4.49032 
24 1 1 0.774319 5.07789 3.77847 
25 1 1 1.1088 5.41871 2.92935 
26 1 1 1.62623 5.05945 2.21689 
27 1 1 2.00663 -5.72343 1.73939 
28 1 1 2.7578 -5.3652 1.25971 
29 1 1 3.42619 -5.42384 0.572241 
30 1 1 3.34296 -4.94076 -0.233594 
ITEM: TIMESTEP
15000
ITEM: NUMBER OF ATOMS
30
ITEM: BOX BOUNDS pp pp pp
-5.7758099999999999e+00 5.7758099999999999e+00
-5.7758099999999999e+00 5.7758099999999999e+00
-5.7758099999999999e+00 5.7758099999999999e+00
ITEM: ATOMS id mol type x y z 
1 1 1 -1.78983 -5.58471 5.72665 
2 1 1 -2.33895 -5.04873 5.14491 
3 1 1 -2.1221 -4.14843 4.95863 
4 1 1 -1.48967 -3.44685 4.95948 
5 1 1 -0.910325 -3.70417 5.69139 
6 1 1 -0.186144 -4.37632 5.68703 
7 1 1 -0.0656868 -5.1907 -5.35753 
8 1 1 -0.45236 5.64902 -4.8168 
9 1 1 -0.379701 4.69688 -4.85138 
10 1 1 -0.392607 4.31649 -5.72029 
11 1 1 0.277063 3.65536 5.75913 
12 1 1 0.152267 2.82311 -5.26468 
13 1 1 -0.0572301 1.9412 -4.9396 
14 1 1 0.602818 1.46412 -5.40716 
15 1 1 1.54147 1.10702 -5.38592 
16 1 1 2.13189 1.12457 5.38682 
17 1 1 2.78893 1.54582 4.85029 
18 1 1 2.58927 2.49236 4.81284 
19 1 1 3.07701 3.32983 4.8356 
20 1 1 3.1945 4.0025 5.4848 
21 1 1 2.34045 4.0568 -5.66742 
22 1 1 1.65274 4.25911 5.18666 
23 1 1 1.55126 4.76119 4.3197 
24 1 1 1.10485 4.87159 3.51166 
25 1 1 0.788975 5.68948 3.0895 
26 1 1 1.1842 5.67673 2.19142 
27 1 1 1.75466 -5.46636 1.5394 
28 1 1 2.62562 -5.32243 1.25382 
29 1 1 3.02204 -5.57792 0.426114 
30 1 1 2.5628 -5.04489 -0.222208 
ITEM: TIMESTEP
16000
ITEM: NUMBER OF ATOMS
30
ITEM: BOX BOUNDS pp pp pp
-5.7758099999999999e+00 5.7758099999999999e+00
-5.7758099999999999e+00 5.7758099999999999e+00
-5.7758099999999999e+00 5.7758099999999999e+00
ITEM: ATOMS id mol type x y z 
1 1 1 -1.80436 -5.41637 5.71117 
2 1 1 -2.37454 -4.62969 -5.76092 
3 1 1 -2.127 -3.81524 5.35395 
4 1 1 -1.26398 -4.03771 5.10261 
5 1 1 -0.49259 -3.70622 5.56955 
6 1 1 0.151089 -4.41375 -5.72633 
7 1 1 -0.00536924 -4.762 -4.85663 
8 1 1 -0.28725 -5.63529 -4.7215 
9 1 1 -0.374562 5.00324 -4.42494 
10 1 1 -0.693217 4.33318 -5.10396 
11 1 1 0.117775 3.9031 -5.313 
12 1 1 -0.0633326 2.93594 -5.11613 
13 1 1 -0.313833 2.00577 -5.0924 
14 1 1 0.564451 1.58837 -5.43142 
15 1 1 1.5175 1.53315 -5.38365 
16 1 1 1.88411 0.992245 5.48269 
17 1 1 2.1704 1.6062 4.73879 
18 1 1 2.47257 2.48758 4.80096 
19 1 1 3.06317 3.19134 4.92035 
20 1 1 3.30835 4.02674 5.36175 
21 1 1 2.41411 4.06739 -5.66497 
22 1 1 1.75266 4.23924 5.16455 
23 1 1 1.44214 4.99331 4.57305 
24 1 1 1.39144 4.82615 3.64619 
25 1 1 0.793912 5.48636 3.25789 
26 1 1 1.13662 5.67423 2.41545 
27 1 1 1.48707 -5.248 1.82094 
28 1 1 2.3398 -5.07794 1.40968 
29 1 1 3.11355 -5.4231 0.931453 
30 1 1 3.02348 -5.35354 -0.00707641 
ITEM: TIMESTEP
17000
ITEM: NUMBER OF ATOMS
30
ITEM: BOX BOUNDS pp pp pp
-5.7758099999999999e+00 5.7758099999999999e+00
-5.7758099999999999e+00 5.7758099999999999e+00
-5.7758099999999999e+00 5.7758099999999999e+00
ITEM: ATOMS id mol type x y z 
1 1 1 -1.73485 -5.25315 -5.54082 
2 1 1 -2.18745 -4.48412 -5.17436 
3 1 1 -2.04213 -3.80646 5.63321 
4 1 1 -1.12882 -3.72218 5.34003 
5 1 1 -0.286121 -3.83257 -5.69605 
6 1 1 0.0287162 -4.27859 -4.83245 
7 1 1 0.154103 -5.25466 -4.58458 
8 1 1 0.294032 5.42012 -5.02589 
9 1 1 -0.281092 4.79781 -4.63886 
10 1 1 -0.293236 3.93571 -5.06577 
11 1 1 0.413349 3.31899 -5.30659 
12 1 1 0.327604 2.54607 -4.79898 
13 1 1 -0.218979 1.76693 -5.02853 
14 1 1 0.379922 1.31694 -5.6699 
15 1 1 1.1524 0.789917 5.68099 
16 1 1 1.60199 0.948399 4.86569 
17 1 1 2.16766 1.68926 4.64214 
18 1 1 2.57488 2.56787 4.58765 
19 1 1 3.21988 3.29119 4.85105 
20 1 1 2.86698 4.18066 5.09486 
21 1 1 2.35452 4.3596 -5.57616 
22 1 1 1.50531 4.29153 5.46924 
23 1 1 0.952409 4.82439 4.91497 
24 1 1 0.972573 5.14977 4.05835 
25 1 1 0.79715 5.63149 3.22507 
26 1 1 0.822476 -5.38511 2.35801 
27 1 1 1.44954 -5.4896 1.67074 
28 1 1 2.33502 -5.28661 1.43806 
29 1 1 2.93328 5.71078 0.935756 
30 1 1 2.49098 5.68768 0.094621 
ITEM: TIMESTEP
18000
ITEM: NUMBER OF ATOMS
30
ITEM: BOX BOUNDS pp pp pp
-5.7758099999999999e+00 5.7758099999999999e+00
-5.7758099999999999e+00 5.7758099999999999e+00
-5.7758099999999999e+00 5.7758099999999999e+00
ITEM: ATOMS id mol type x y z 
1 1 1 -1.81255 -5.48201 -5.62687 
2 1 1 -2.10088 -4.69692 5.3865 
3 1 1 -1.81019 -3.96088 -5.59618 
4 1 1 -1.00145 -4.15832 5.57834 
5 1 1 -0.329857 -3.83323 -5.31017 
6 1 1 -0.286455 -4.45374 -4.57043 
7 1 1 0.243998 -5.31559 -4.86441 
8 1 1 -0.454489 -5.74714 -5.3774 
9 1 1 -0.205942 5.03212 -4.83009 
10 1 1 -0.158328 4.27357 -5.41808 
11 1 1 0.297228 3.50797 -5.04337 
12 1 1 0.198542 2.59685 -4.64538 
13 1 1 0.157866 1.95138 -5.3337 
14 1 1 0.760621 1.20873 -5.29139 
15 1 1 1.59414 0.765021 -5.51229 
16 1 1 1.75461 1.04982 5.12204 
17 1 1 1.87967 1.97691 5.0057 
18 1 1 2.79783 2.15033 4.86147 
19 1 1 3.32555 2.87405 5.13349 
20 1 1 3.04161 3.78649 5.15284 
21 1 1 2.37909 4.2248 5.71575 
22 1 1 1.61904 4.06637 5.15946 
23 1 1 1.41178 4.86263 4.72635 
24 1 1 1.40316 4.91535 3.75157 
25 1 1 0.930185 5.27189 3.05016 
26 1 1 1.07264 5.60358 2.14046 
27 1 1 1.67844 -5.39748 1.622 
28 1 1 2.56788 -5.11455 1.62794 
29 1 1 3.04974 -5.77317 1.06788 
30 1 1 2.86859 5.13852 0.304401 
ITEM: TIMESTEP
19000
ITEM: NUMBER OF ATOMS
30
ITEM: BOX BOUNDS pp pp pp
-5.7758099999999999e+00 5.7758099999999999e+00
-5.7758099999999999e+00 5.7758099999999999e+00
-5.7758099999999999e+00 5.7758099999999999e+00
ITEM: ATOMS id mol type x y z 
1 1 1 -1.96196 5.58735 -5.26848 
2 1 1 -1.79078 -5.09007 -5.63384 
3 1 1 -1.88498 -4.1156 -5.6533 
4 1 1 -1.03346 -3.81821 5.613 
5 1 1 -0.417251 -3.73316 -5.18564 
6 1 1 -0.173679 -4.56594 -4.77875 
7 1 1 0.296017 -5.25607 -5.27819 
8 1 1 -0.332728 5.58293 -5.232 
9 1 1 -0.284876 4.80874 -4.66027 
10 1 1 0.211886 4.23462 -5.27212 
11 1 1 0.154438 3.39248 -4.75995 
12 1 1 0.216366 2.51292 -4.42636 
13 1 1 0.4404 1.88701 -5.15696 
14 1 1 0.873743 1.09272 -5.33064 
15 1 1 1.60367 0.527821 -5.63761 
16 1 1 2.06621 0.899208 5.20529 
17 1 1 2.2864 1.85681 5.3324 
18 1 1 3.1133 2.14385 4.92396 
19 1 1 3.16009 2.8579 5.5162 
20 1 1 2.94931 3.78153 5.71524 
21 1 1 2.10963 4.09164 -5.64742 
22 1 1 1.47534 3.8758 5.19857 
23 1 1 1.11233 4.40219 4.43573 
24 1 1 1.67598 4.82033 3.69209 
25 1 1 1.45749 5.21557 2.79371 
26 1 1 1.25937 5.69042 1.94521 
27 1 1 1.5835 -5.31102 1.26502 
28 1 1 2.48837 -5.26165 1.49157 
29 1 1 3.36469 -5.59887 1.37266 
30 1 1 3.33092 5.04197 1.11427 
ITEM: TIMESTEP
20000
ITEM: NUMBER OF ATOMS
30
ITEM: BOX BOUNDS pp pp pp
-5.7758099999999999e+00 5.7758099999999999e+00
-5.7758099999999999e+00 5.7758099999999999e+00
-5.7758099999999999e+00 5.7758099999999999e+00
ITEM: ATOMS id mol type x y z 
1 1 1 -2.17537 -5.74546 -5.50221 
2 1 1 -2.5625 -4.96671 5.62997 
3 1 1 -1.87867 -4.35101 5.31698 
4 1 1 -1.31191 -3.88157 -5.63819 
5 1 1 -0.46708 -3.95519 -5.18296 
6 1 1 0.0342309 -4.55897 -4.61325 
7 1 1 0.161269 -5.44935 -4.91341 
8 1 1 -0.154529 5.21374 -5.00906 
9 1 1 -0.614803 4.63971 -4.38569 
10 1 1 -0.198812 3.80347 -4.64988 
11 1 1 -0.154674 2.92053 -4.2499 
12 1 1 0.480499 2.21347 -4.25093 
13 1 1 0.607109 2.02311 -5.17953 
14 1 1 0.651732 1.03773 -5.14266 
15 1 1 1.32203 0.44021 -5.49992 
16 1 1 2.01078 0.826588 5.50386 
17 1 1 2.2692 1.67827 5.15656 
18 1 1 2.91711 2.3832 4.94041 
19 1 1 3.3981 3.17215 5.24308 
20 1 1 3.02559 3.84343 -5.68517 
21 1 1 2.1065 3.52603 -5.76702 
22 1 1 1.44093 3.6884 5.15502 
23 1 1 0.983117 4.1391 4.46063 
24 1 1 1.33727 4.44052 3.63121 
25 1 1 1.09981 4.49361 2.71524 
26 1 1 1.01121 5.11085 2.01406 
27 1 1 1.45488 -5.71899 1.4673 
28 1 1 2.3604 -5.42031 1.42541 
29 1 1 3.02129 5.4088 1.53141 
30 1 1 3.944 5.26139 1.24733 
ITEM: TIMESTEP
21000
ITEM: NUMBER OF ATOMS
30
ITEM: BOX BOUNDS pp pp pp
-5.7758099999999999e+00 5.7758099999999999e+00
-5.7758099999999999e+00 5.7758099999999999e+00
-5.7758099999999999e+00 5.7758099999999999e+00
ITEM: ATOMS id mol type x y z 
1 1 1 -2.52807 -5.75414 -5.03609 
2 1 1 -2.48633 -5.06575 -5.62857 
3 1 1 -1.80282 -4.71204 5.29788 
4 1 1 -1.07979 -4.22242 5.74754 
5 1 1 -0.648554 -3.8335 -5.1023 
6 1 1 -0.199205 -4.42051 -4.49402 
7 1 1 -0.11523 -5.25785 -4.97105 
8 1 1 -0.512135 5.52841 -4.59427 
9 1 1 -0.997748 4.64306 -4.32398 
10 1 1 -0.408431 3.92103 -4.47458 
11 1 1 0.179986 3.12729 -4.29228 
12 1 1 0.650526 2.32439 -4.37408 
13 1 1 0.796777 2.0134 -5.29147 
14 1 1 0.781288 1.09503 -5.04824 
15 1 1 1.47795 0.494963 -5.33847 
16 1 1 1.85906 0.982668 5.47456 
17 1 1 2.10836 1.70121 4.95986 
18 1 1 2.87304 2.273 4.97614 
19 1 1 3.38904 2.70722 5.67605 
20 1 1 2.79424 3.15965 -5.22963 
21 1 1 1.92535 3.49066 -5.45249 
22 1 1 1.30073 3.86169 5.50186 
23 1 1 1.13849 3.85044 4.53561 
24 1 1 1.46055 4.44368 3.89009 
25 1 1 0.952704 4.81248 3.14015 
26 1 1 1.4899 4.75102 2.36412 
27 1 1 1.43648 5.51785 1.83484 
28 1 1 2.21979 5.45982 1.28864 
29 1 1 3.10575 5.66827 1.63831 
30 1 1 4.03315 -5.54662 1.49396 
ITEM: TIMESTEP
22000
ITEM: NUMBER OF ATOMS
30
ITEM: BOX BOUNDS pp pp pp
-5.7758099999999999e+00 5.7758099999999999e+00
-5.7758099999999999e+00 5.7758099999999999e+00
-5.7758099999999999e+00 5.7758099999999999e+00
ITEM: ATOMS id mol type x y z 
1 1 1 -2.63839 -5.82591 -5.27356 
2 1 1 -2.65083 -5.77815 5.32102 
3 1 1 -2.04722 -5.0832 4.96794 
4 1 1 -1.17698 -5.07525 5.40911 
5 1 1 -0.961404 -4.17611 5.61232 
6 1 1 -0.503514 -4.20945 -5.07541 
7 1 1 -0.126728 -5.02259 -4.74108 
8 1 1 -0.529524 5.72741 -4.48207 
9 1 1 -0.793376 4.80882 -4.6806 
10 1 1 -0.687731 3.86014 -4.48505 
11 1 1 0.0144891 3.24081 -4.30973 
12 1 1 0.985666 3.15842 -4.31765 
13 1 1 1.01764 2.42963 -4.87419 
14 1 1 0.643244 1.51828 -4.90061 
15 1 1 1.14711 1.03736 -5.54332 
16 1 1 1.97679 0.965073 5.58154 
17 1 1 2.05672 1.58613 4.83844 
18 1 1 2.82865 1.99911 5.21094 
19 1 1 3.02308 2.27673 -5.41213 
20 1 1 2.77257 3.12553 -5.07668 
21 1 1 2.32905 3.60577 -5.74752 
22 1 1 1.56586 3.99273 5.31541 
23 1 1 1.1413 3.69905 4.48301 
24 1 1 1.36076 4.11527 3.68263 
25 1 1 1.04338 4.81743 3.11672 
26 1 1 1.01981 5.61872 2.61375 
27 1 1 1.11269 -5.66118 1.65525 
28 1 1 1.95056 5.44519 1.56713 
29 1 1 2.80851 -5.57611 1.62008 
30 1 1 3.65383 -5.27863 1.97394 
ITEM: TIMESTEP
23000
ITEM: NUMBER OF ATOMS
30
ITEM: BOX BOUNDS pp pp pp
-5.7758099999999999e+00 5.7758099999999999e+00
-5.7758099999999999e+00 5.7758099999999999e+00
-5.7758099999999999e+00 5.7758099999999999e+00
ITEM: ATOMS id mol type x y z 
1 1 1 -2.12106 5.51388 -5.58662 
2 1 1 -2.57594 -5.42698 5.40068 
3 1 1 -1.91133 -4.99768 4.87393 
4 1 1 -1.08603 -4.63546 5.18298 
5 1 1 -0.781189 -4.06014 -5.6441 
6 1 1 -0.539197 -4.29351 -4.74462 
7 1 1 -0.135331 -5.11431 -4.90533 
8 1 1 -0.530244 5.61696 -4.54049 
9 1 1 -0.941596 4.74315 -4.31793 
10 1 1 -0.766617 3.89254 -3.93624 
11 1 1 0.0641413 3.50959 -4.23482 
12 1 1 0.955028 3.31455 -4.22747 
13 1 1 0.983808 2.64191 -4.92623 
14 1 1 0.917141 1.69506 -5.27343 
15 1 1 0.813762 0.792091 -5.54792 
16 1 1 1.67343 0.875011 5.47763 
17 1 1 2.09487 1.46373 4.89341 
18 1 1 2.78774 2.03533 5.14253 
19 1 1 2.90703 2.30923 -5.49163 
20 1 1 2.57423 3.16941 -5.44316 
21 1 1 1.97807 3.8147 5.76377 
22 1 1 1.36801 4.17009 5.06511 
23 1 1 0.887934 3.8663 4.30504 
24 1 1 1.32462 4.16132 3.49762 
25 1 1 1.43175 4.64308 2.6902 
26 1 1 1.24712 5.52053 2.39346 
27 1 1 1.25809 -5.7161 1.48045 
28 1 1 2.20514 5.47793 1.46618 
29 1 1 2.95821 -5.57627 1.20674 
30 1 1 3.85885 -5.42466 1.56397 
ITEM: TIMESTEP
24000
ITEM: NUMBER OF ATOMS
30
ITEM: BOX BOUNDS pp pp pp
-5.7758099999999999e+00 5.7758099999999999e+00
-5.7758099999999999e+00 5.7758099999999999e+00
-5.7758099999999999e+00 5.7758099999999999e+00
ITEM: ATOMS id mol type x y z 
1 1 1 -2.236 5.19263 -5.7633 
2 1 1 -2.1994 -5.48782 5.49859 
3 1 1 -1.94837 -4.57507 5.70696 
4 1 1 -1.11579 -4.38387 5.15761 
5 1 1 -0.391907 -3.794 5.39086 
6 1 1 -0.0606548 -4.39247 -5.48835 