LAMMPS data file via write_data, version 3 Mar 2020, timestep = 0

6830 atoms
3 atom types
29 bonds
1 bond types

-5.7758099999999999e+00 5.7758099999999999e+00 xlo xhi
-5.7758099999999999e+00 5.7758099999999999e+00 ylo yhi
-5.7758099999999999e+00 5.7758099999999999e+00 zlo zhi

Masses

1 1
2 1
3 1

Pair Coeffs # lj/cut

1 1 1
2 1 0.5
3 1 0.5

Bond Coeffs # fene

1 30 1.5 1 1

Atoms # bond

1830 1801 2 -4.2706808851055698e+00 -3.9808711510083259e+00 5.6554974764094030e+00 2 2 -1
3710 3681 2 -5.0196980418170405e+00 -5.6081984295789109e+00 5.0303117250502938e+00 -1 -7 -9
5684 5655 2 -5.4933897301810370e+00 5.1126713022986205e+00 -4.9287439791018253e+00 8 8 -6
2664 2635 2 -4.0376074954387846e+00 -5.1195283767896731e+00 -4.9668652768547359e+00 -1 -5 4
6693 6664 3 -5.0933014670083736e+00 5.5383929674770753e+00 -5.7582754959995279e+00 -9 2 4
5966 5937 2 -5.4105613506027703e+00 -5.2225179401212287e+00 5.6035644043943940e+00 -1 2 0
782 753 2 -4.5309472724188620e+00 -5.2732919835324790e+00 -4.8349098110862538e+00 -5 -1 -7
6299 6270 3 -4.4123493768038777e+00 -4.8596337802184584e+00 5.4619976908567240e+00 -4 -1 11
940 911 2 -5.7177338385800729e+00 -4.6463713619383826e+00 5.4054452181458199e+00 0 4 -6
6180 6151 3 -2.1588330770473272e+00 -4.5696603067062194e+00 -3.8360120026149214e+00 -1 12 -3
3432 3403 2 -5.1618042789674030e+00 -4.5226090947761399e+00 -5.6983880685628030e+00 -2 -6 -3
3417 3388 2 -2.8217171159740659e+00 4.3706789450474623e+00 -5.4092320171729966e+00 5 -2 1
1011 982 2 -5.1693432510142650e+00 -5.4826776632799721e+00 -5.3470935526299606e+00 4 -2 2
5054 5025 2 -2.6384258026685448e+00 -4.7736572802734107e+00 5.7137680529781409e+00 -9 -6 0
2576 2547 2 -3.2925089613367331e+00 -3.8066755002782364e+00 -4.2076355340068998e+00 4 3 6
1094 1065 2 -2.4988542681272077e+00 -5.3745295954568579e+00 -4.8118849878521912e+00 3 5 -2
1178 1149 2 -3.6309813981705519e+00 -5.7317272168751146e+00 -4.6515822794631987e+00 5 -8 0
865 836 2 -2.9786825844793832e+00 -5.0203606278221091e+00 -5.1347632523954019e+00 2 -4 6
468 439 2 -1.3579340213185402e+00 -5.4238266033835938e+00 -4.6756523626883917e+00 10 -4 2
1874 1845 2 -2.7218977939063742e+00 5.7430874488618393e+00 -4.2133837746425389e+00 6 -2 2
875 846 2 -1.8938289140148925e+00 -5.0622135359994020e+00 -5.1820598447694959e+00 -5 -5 8
3977 3948 2 -3.9649926594424872e-01 -3.4726209150036493e+00 -4.0138655860538694e+00 -5 -1 -1
3485 3456 2 -2.4504703997920290e+00 -5.1640489857242198e+00 -4.0740854441984728e+00 -2 8 5
983 954 2 -3.0262842683486881e+00 -4.4315843537571782e+00 -4.2314656760867573e+00 -2 6 -9
3212 3183 2 -1.9005433588978244e+00 -5.3059593814755672e+00 -4.7186616273768731e+00 -5 -3 5
2753 2724 2 -8.7876136663594429e-01 -5.0083034499072054e+00 -3.9461583242363769e+00 0 4 1
5688 5659 2 -1.0113922371492892e+00 4.7831086106265364e+00 -4.6635200416284075e+00 -9 7 -1
1274 1245 2 8.3150568211748055e-01 -4.8244218718873242e+00 -4.1663870722943059e+00 -10 -1 2
3998 3969 2 7.0726575470746811e-03 -4.7052802892528449e+00 -4.6659711206898100e+00 -11 1 -3
2610 2581 2 2.7542482766112519e-01 -4.8370541042922799e+00 -4.2037675053427188e+00 -1 -4 8
617 588 2 -8.7514664878417592e-01 -5.2269880199088439e+00 -5.4829129601883313e+00 3 -7 1
5882 5853 2 -1.4883162922705098e-01 -5.6468804339435401e+00 -4.9716715894169701e+00 14 -7 -6
3011 2982 2 -5.4505580026041534e-01 -4.7257220765039847e+00 -4.5354343281175939e+00 11 0 1
1576 1547 2 2.0624152700199621e+00 -5.0162006567691408e+00 -5.3132351689152673e+00 12 0 4
5587 5558 2 1.5494498012335889e+00 -4.7019106770308552e+00 -5.4097508190626789e+00 -2 1 -4
5963 5934 2 1.0294862303696182e+00 5.7405992019061172e+00 4.6945138420076047e+00 -12 -7 -2
6768 6739 3 1.8270498961400423e+00 -4.8999136792364206e+00 -4.8688460899546397e+00 1 8 7
3709 3680 2 1.2931544717957075e+00 -5.5419384536123468e+00 -4.8553570802418395e+00 -1 3 7
6601 6572 3 1.3377093762140888e+00 5.5031679144717014e+00 -5.0890178542329698e+00 0 5 -3
5052 5023 2 8.6153916583456935e-01 5.2642080887088163e+00 -4.5735674477265231e+00 -4 4 8
2286 2257 2 1.0003447064296340e+00 -5.5242217745219717e+00 -4.3379962991768215e+00 -8 4 7
6171 6142 3 2.0320554812879719e+00 -5.4831077661647889e+00 5.4476488305961137e+00 -5 2 6
6509 6480 3 1.4540306452028260e+00 -5.6516134413315724e+00 5.0699504830581557e+00 4 4 3
5 1 1 2.0401342362429333e+00 -5.6540023410426334e+00 -4.8686159156946456e+00 0 2 -1
821 792 2 1.9994667514566367e+00 -4.1873743685808531e+00 5.0830424398259915e+00 6 -5 -6
6392 6363 3 1.9146293713132645e+00 -3.8009375092156512e+00 -4.8629167129847355e+00 1 -4 -2
3194 3165 2 2.2618818987460894e+00 5.4710666936971020e+00 -5.6224891519393925e+00 4 -4 4
6086 6057 2 2.5787312583349125e+00 -4.9892073613658754e+00 -4.7674244806736761e+00 0 -10 1
5477 5448 2 2.4481474015265969e+00 -5.4325105532280693e+00 -5.4538123199868593e+00 -1 -3 0
63 34 2 4.5674574600191562e+00 5.2437838971216442e+00 -4.7670248096946048e+00 -2 -9 -2
2482 2453 2 3.8012345445658537e+00 -5.7012766887533832e+00 -5.6303227361834942e+00 2 -4 -5
2777 2748 2 2.7245626573873980e+00 -4.8861029194933785e+00 -5.4427709370439388e+00 2 5 0
4297 4268 2 3.0504949784240027e+00 4.9322149764483489e+00 -5.3110963184798381e+00 2 5 -6
3549 3520 2 3.3181122853068667e+00 -5.7432457797928160e+00 5.6055579838407308e+00 -4 7 5
5917 5888 2 3.3545495255403321e+00 5.7101330934773049e+00 -5.0866313363459019e+00 -5 -1 1
2857 2828 2 3.2476609576186668e+00 -3.3467298853193963e+00 -4.6061321136418973e+00 -9 -4 4
4209 4180 2 3.9020980787749475e+00 -5.5356678580884786e+00 -4.1139182021756104e+00 4 -5 9
1589 1560 2 3.0852149241811162e+00 -5.7535934033150644e+00 -3.5003751321188186e+00 -5 5 1
2014 1985 2 4.9477000460711364e+00 -3.1096957386639028e+00 -5.3941806371529504e+00 -5 5 3
5520 5491 2 4.3862246240028657e+00 -4.0970955752724869e+00 -4.3956722725877677e+00 4 2 4
763 734 2 5.1365253813211877e+00 -5.4859655330865804e+00 5.3188492586758711e+00 -2 -5 4
3271 3242 2 5.7169897261952975e+00 -4.7962627684241346e+00 -4.6966224627523694e+00 3 -3 9
3577 3548 2 4.4006392772709804e+00 -5.0534948140145692e+00 -5.6006149332670878e+00 -2 3 11
4953 4924 2 4.5137381514884796e+00 -5.6303356874520443e+00 -4.7428533492052214e+00 1 -2 3
6092 6063 2 -4.9911348455852451e+00 -5.1024141561472778e+00 -4.1876746521480106e+00 -6 1 1
5240 5211 2 3.5533296858366246e+00 -5.2541807580636428e+00 5.6737061961473492e+00 2 -2 -3
2333 2304 2 -4.5328089384687473e+00 -3.2568680604101381e+00 -5.7485286832761604e+00 -6 2 3
489 460 2 5.6801648637666018e+00 -4.5767941375705936e+00 -5.2288003256380948e+00 2 -4 10
2627 2598 2 5.7132087654912542e+00 -3.0908355477879761e+00 -4.3122808031398030e+00 -1 -2 -6
6334 6305 3 -5.1459483354068132e+00 -4.1569438755754753e+00 -5.3128438864824385e+00 -4 0 -6
5438 5409 2 -5.4377188497121249e+00 -2.7656609954336742e+00 -5.1815891674113166e+00 0 -4 -3
2337 2308 2 -4.6696910578397395e+00 -4.3556600102780738e+00 -3.5111452213428755e+00 -4 -2 -2
850 821 2 -4.6230136929778984e+00 -4.3850295985946977e+00 5.6525265395021229e+00 9 -2 5
972 943 2 -3.0436157028249191e+00 -3.0661163133008551e+00 5.7501334387499190e+00 4 5 1
4465 4436 2 -3.2437320543760535e+00 -3.6430579442074147e+00 -5.1088577097491736e+00 1 -4 9
6260 6231 3 -3.1904066111317952e+00 -3.7274780799818861e+00 -5.6648171320025291e+00 8 3 -3
3189 3160 2 -2.9631496451036567e+00 -2.3274535872728124e+00 -5.3927512548459147e+00 -2 6 5
4422 4393 2 -5.0377645028915472e+00 -4.4359673699946418e+00 -4.7334860258678120e+00 -3 2 -3
1861 1832 2 -4.8516498104715557e+00 -3.6568871062143362e+00 5.3877606823791080e+00 -1 -1 -6
6525 6496 3 -3.8417018322777330e+00 -3.4918980142849358e+00 -5.5347161220135721e+00 3 4 3
6055 6026 2 -4.4419524213075015e+00 -3.6663474811732129e+00 4.6781665718360559e+00 -2 0 10
3570 3541 2 -4.3165631105413969e+00 -5.5318391063429990e+00 -5.4530422255641140e+00 -3 0 -5
6378 6349 3 -3.9544154420141457e+00 -4.0422204554221723e+00 -4.6310091791122536e+00 -2 -2 -11
3079 3050 2 -1.5188963576385233e+00 -2.9768497302294978e+00 -5.0519538236646344e+00 -3 0 2
3044 3015 2 -2.8189831206557323e+00 -3.8878557954613258e+00 5.5727251109041527e+00 1 6 2
2288 2259 2 -2.8553499068499386e+00 -3.8564346385102448e+00 -4.7936996268095715e+00 4 -5 -2
4315 4286 2 -2.4649178869956279e+00 -4.7856433355018178e+00 -5.1509663112434625e+00 -1 4 -2
5885 5856 2 -2.5372208053195520e+00 -4.1533112377273049e+00 -5.1663135225862744e+00 1 11 -6
6802 6773 3 -1.3540513113183319e+00 -3.8802646400994152e+00 -4.5559120928316137e+00 -6 7 3
5509 5480 2 -2.4963535239375529e+00 -4.5168657576377536e+00 -3.3033169634243875e+00 0 2 -1
3255 3226 2 -1.4941043719208698e+00 -3.3914663903655491e+00 -4.6940010784179922e+00 3 6 0
1063 1034 2 -1.1616774047143499e+00 -4.8724693583026664e+00 -4.3960632515743923e+00 -1 4 -3
6428 6399 3 -2.2942548623062367e+00 -4.3786501364006476e+00 -4.4231332198089168e+00 6 -11 9
823 794 2 -7.8838772635029641e-01 -3.2864605175733703e+00 -3.2214335223419668e+00 -1 -3 4
5472 5443 2 -2.1808736157839363e+00 -3.4271629153075884e+00 -5.7376894938689498e+00 -2 -11 4
4676 4647 2 -7.4344093741866249e-02 -4.7480678160879197e+00 5.3534509908835846e+00 2 -4 -7
2789 2760 2 -2.1579502155518746e+00 -5.1068731949971644e+00 -5.6884074620070830e+00 -9 -1 6
1659 1630 2 -1.0746025052304027e+00 -4.3662633527534016e+00 -4.5746969608040704e+00 0 -4 -12
4967 4938 2 2.2521032637644622e+00 -4.2012427054644093e+00 -5.0918934830110905e+00 0 5 -11
458 429 2 1.4165567606059198e-01 -4.1651482770095303e+00 -4.6895971961860017e+00 2 -1 4
624 595 2 2.7109621025849195e-01 -1.9131707688615338e+00 -5.3341208282590253e+00 -4 -1 -1
1808 1779 2 -4.7594335463295434e-01 -4.1913393294840473e+00 -5.6087089073760978e+00 -4 -7 -8
4201 4172 2 1.0934927947491238e+00 -3.4361192233783862e+00 5.5028946366663432e+00 2 2 -2
912 883 2 1.4211046418526587e+00 -3.7725066604582644e+00 -5.4058217127307717e+00 -6 -2 10
354 325 2 2.0996907500940019e+00 -3.5228018552990989e+00 -3.8928260603421991e+00 -9 -1 -3
4885 4856 2 5.2149024394002652e-01 -5.3079894722928707e+00 -4.9328948905796164e+00 -7 -10 13
1716 1687 2 1.6170462181187367e-01 -3.3597724192815175e+00 -4.1092651744918065e+00 -5 -2 -6
1807 1778 2 1.4094970415109700e+00 -4.2235376562536899e+00 -4.5727985023799391e+00 6 4 5
4371 4342 2 1.8741243702316344e+00 -2.9677709291185312e+00 -3.9746047995267082e+00 2 7 6
6184 6155 3 2.1772035294724246e+00 -3.9883106128896109e+00 -4.1698730448731096e+00 3 5 -2
3617 3588 2 2.6858596937508903e+00 -3.3647732036493392e+00 -3.5831287438228863e+00 -3 5 3
6818 6789 3 1.9590236728836565e+00 -3.5385039058709715e+00 -5.3736442973377843e+00 -1 -1 -2
1954 1925 2 2.2672272068577191e+00 -4.5764959447619518e+00 -4.7325547867493327e+00 -1 -4 -2
6290 6261 3 2.6709183407060593e+00 -4.4065794605160287e+00 5.6411628123223325e+00 3 -4 -4
666 637 2 4.6068838466906992e-01 -4.0205043280760124e+00 5.2424644634401041e+00 0 1 -2
4597 4568 2 2.7017772517798284e+00 -3.2154230776645152e+00 -4.9221919257593116e+00 2 10 2
3146 3117 2 3.2401251015349670e+00 -3.8898917056929831e+00 -4.6556486203743406e+00 -1 4 5
2165 2136 2 2.2790103353259479e+00 -3.5989758703045758e+00 -4.5693881587170377e+00 -2 5 3
3205 3176 2 4.2453108156863530e+00 -4.3317798015850242e+00 -4.8713945766704496e+00 0 -1 -5
3785 3756 2 2.6978713174516358e+00 -3.9348676965571219e+00 5.3583457897694293e+00 -2 3 0
1492 1463 2 2.4052005157052996e+00 -3.9519022201054494e+00 -5.7302684393055872e+00 -5 -7 -5
5673 5644 2 2.9003481860294045e+00 -3.8229975188612948e+00 -5.5970433009573428e+00 3 0 4
1668 1639 2 2.7041226889881758e+00 -2.7353206332365438e+00 5.6003078955729020e+00 3 -10 -2
6366 6337 3 3.2877470005443552e+00 -4.1967500305512520e+00 -5.5003749552404786e+00 1 0 -1
4157 4128 2 3.1618567225433938e+00 -4.4473331517676353e+00 -4.6263652829537101e+00 -7 2 -8
2546 2517 2 4.9512871629208641e+00 -3.9389814933158922e+00 -5.4283579229929568e+00 -2 2 -7
3845 3816 2 4.2834150404614295e+00 -4.4797451487693296e+00 5.6547182146087005e+00 -9 2 1
1681 1652 2 5.2158736232986351e+00 -3.7207369392412692e+00 -4.9915550594433107e+00 -4 11 5
4266 4237 2 3.1752192966921555e+00 -4.1044325194805538e+00 5.5594078880505755e+00 0 3 -5
2505 2476 2 5.6147826339635678e+00 -3.8131895408008076e+00 -5.5227768672038797e+00 3 8 -1
1825 1796 2 5.3520900161578107e+00 -2.7538017225866351e+00 -3.6844917713173380e+00 -1 7 0
5335 5306 2 4.8596351107288118e+00 -2.8803545793708580e+00 -4.4871415988642411e+00 2 5 2
1143 1114 2 4.8874112828349006e+00 -3.7339648139368355e+00 5.6237369151639953e+00 7 -2 -1
4200 4171 2 -5.7429332602136443e+00 -4.0453984364773250e+00 -5.0439065804916536e+00 -1 8 0
3831 3802 2 -4.4239672592908832e+00 -2.5437129840023314e+00 -4.8904308062449386e+00 -2 1 6
2981 2952 2 -5.0122566992982289e+00 -2.6164995865074143e+00 -4.9296807369489946e+00 -2 -4 4
587 558 2 -3.7561238702409634e+00 -1.6043856372361409e+00 5.4765629831885425e+00 3 -7 2
2837 2808 2 -5.7679012439642241e+00 -3.5537167967880361e+00 5.5900489540658738e+00 -5 -4 0
2679 2650 2 -4.2792360358618851e+00 -3.2074221206704880e+00 4.3588281217159350e+00 3 1 -9
4902 4873 2 -5.1332887419003779e+00 -2.0403604396439636e+00 -2.9637600086367395e+00 6 -5 1
4366 4337 2 -3.7501304135195714e+00 -2.3993194747094009e+00 -5.7453952719715877e+00 -5 -2 -2
3237 3208 2 -5.1304139290635247e+00 -2.9709336857280801e+00 -5.7318524064476435e+00 -6 -1 8
2945 2916 2 -3.6877653691319416e+00 -2.4576635775226445e+00 -4.4209069090909008e+00 -4 10 -1
5523 5494 2 -4.2951543638416325e+00 -2.7126885106503589e+00 -5.7706772380859332e+00 7 0 22
4711 4682 2 -5.2296836910919646e+00 -3.3991418946060481e+00 -4.2632070371304076e+00 0 10 2
3025 2996 2 -3.6226868584800900e+00 -3.7486529890767537e+00 5.4971766258570787e+00 2 -2 -8
1186 1157 2 -2.8885493429958813e+00 -2.5722543250581440e+00 5.5185126478028588e+00 -4 -5 -6
4785 4756 2 -2.6480542859181559e+00 -2.8277382117895016e+00 -5.3639820700424199e+00 -1 2 4
4176 4147 2 -2.0062025783285486e+00 -3.0435048634295088e+00 -5.2801377798869655e+00 -1 3 5
5017 4988 2 -2.0232913683509688e+00 -2.3354999684093842e+00 -5.7577656761759144e+00 1 6 0
5077 5048 2 -2.4456406540183337e+00 -2.5726458654746880e+00 -4.8534888241934748e+00 2 0 -1
1921 1892 2 -3.1979100071982360e+00 -2.1270327195801224e+00 -4.7353295470973773e+00 -3 6 -6
1463 1434 2 -3.3330744142078785e+00 -3.3621446592517588e+00 -4.6009570965402533e+00 4 -2 3
2053 2024 2 -2.3269730391224908e+00 -1.4936213065699666e+00 5.3508439182759178e+00 0 1 0
563 534 2 -1.4418078767063454e+00 -3.1549408710278923e+00 -5.5990256802634306e+00 -1 4 -3
5340 5311 2 -1.4927039451763751e+00 -3.7411473913191027e+00 -5.4950562418216240e+00 1 7 -3
2723 2694 2 -1.8699875321838053e+00 -2.2655961802386875e+00 -5.1960373193078313e+00 -4 4 2
3225 3196 2 -6.7312132770023003e-01 -2.5520126057705395e+00 -5.4990924783404003e+00 -10 -5 -7
519 490 2 -1.4158883502612469e+00 -4.6753908262794797e+00 -5.0139362385944191e+00 4 -7 0
1360 1331 2 -2.2331843582457602e+00 -3.5073997455548129e+00 4.9835438378777717e+00 -3 -2 1
5843 5814 2 -9.4728552043474405e-03 -2.4062333827248916e+00 -5.7045392972733495e+00 -3 2 2
5591 5562 2 1.5174926169439815e+00 -3.5532178315281113e+00 -4.4210043809079744e+00 -1 -3 -4
1684 1655 2 -4.6963603916712121e-01 -2.8852707808308984e+00 4.5123936431981448e+00 -1 -5 -16
5828 5799 2 -1.1290804147221756e+00 -2.9206280939944222e+00 -4.6716392847066786e+00 1 0 3
6813 6784 3 -1.3323407344405189e+00 -4.3350433069429481e+00 -5.4596854162603732e+00 5 -3 5
6176 6147 3 -4.0661020535665116e-01 -3.1951943019615681e+00 -5.4626909976383464e+00 8 1 0
742 713 2 -9.0569001366541146e-01 -1.6338157403908153e+00 5.0414067398612525e+00 -5 3 -4
5149 5120 2 4.1889213399517305e-01 -4.0080276136638968e+00 -5.1805727486840913e+00 -11 -3 1
5158 5129 2 -1.7147911189902616e+00 -1.9494899151258771e+00 -4.3865905065997790e+00 -2 2 0
6775 6746 3 5.9934161406922026e-01 -4.4984464306179790e+00 -4.4708254221627950e+00 6 2 -6
3700 3671 2 -1.4746829649701969e+00 -2.5456847383690215e+00 -5.7510510749002313e+00 2 7 1
4158 4129 2 -3.5284333313316735e-01 -2.8085346270328535e+00 -4.6926473294838145e+00 4 3 1
3229 3200 2 -3.3842277406851767e-01 -4.2422860030962415e+00 -5.0773896861905357e+00 -13 -5 7
2271 2242 2 1.2644683960890346e+00 -2.4544783014930407e+00 -4.6383153644764024e+00 4 -4 0
717 688 2 5.4711771998742520e-01 -2.9863566645892323e+00 -4.0026873925671573e+00 -9 3 4
407 378 2 7.1668993272828674e-01 -2.1865139064432326e+00 -3.7053337314644499e+00 -1 2 2
3023 2994 2 2.7679785590492032e+00 -2.8672598935466693e+00 -5.2894313276520464e+00 -4 2 -4
5179 5150 2 2.1200662739660152e+00 -1.7028732344679789e+00 -4.8792697693968758e+00 -1 -4 -1
2545 2516 2 2.8223893374519480e+00 -1.7805702785792248e+00 -4.4965593685857774e+00 1 -2 3
5806 5777 2 9.4106681095221012e-01 -1.9521487035953742e+00 -3.1329622380250570e+00 1 3 0
4290 4261 2 3.1950331787691639e+00 -3.6316842516477257e+00 -5.1432065771393809e+00 6 -4 0
3374 3345 2 2.1426755065088936e+00 -2.9751091380579116e+00 -4.5632819488581839e+00 -3 -1 -2
1519 1490 2 3.9734311393652771e-01 -2.3968537007717772e+00 -4.0841365567199075e+00 3 -5 1
3467 3438 2 3.8349867134008679e+00 -4.0219029183747130e+00 -4.6232447137680364e+00 10 3 1
2983 2954 2 2.8410303537172825e+00 -1.5307530091122341e+00 -5.1292481902545051e+00 1 6 1
991 962 2 3.2054325198882525e+00 -3.2893321735001120e+00 5.5350630748869110e+00 -3 2 4
5630 5601 2 3.6139137812369011e+00 -3.7263257391160725e+00 -5.7239874136914057e+00 -2 -3 -4
3057 3028 2 3.7164844012116860e+00 -3.4571484800428300e+00 -4.9578004676866732e+00 -5 -11 -2
2796 2767 2 2.5564232008844203e+00 -2.3697046065813758e+00 -5.4966851734287188e+00 -2 8 -3
4179 4150 2 2.2624856695339002e+00 -3.0661549896076949e+00 -5.3380633254006566e+00 -4 -7 5
2548 2519 2 4.1124542021960613e+00 -2.6033285702773035e+00 -5.4202505872456053e+00 12 7 -6
5290 5261 2 5.3932702849889740e+00 -2.4808806259928682e+00 -4.7831965436597965e+00 -6 -8 1
4429 4400 2 1.9766148335898839e+00 -2.3334440720638217e+00 -4.7527926322094727e+00 -11 2 -6
4223 4194 2 3.7312653031651943e+00 -4.1589596049051361e+00 5.5905546101469055e+00 0 -8 -10
286 257 2 3.4210917883518666e+00 -2.8497356955436985e+00 -4.7988209366536161e+00 -4 5 3
1401 1372 2 4.4675588435169447e+00 -3.2869053552485807e+00 -5.0871989718584860e+00 -6 -1 2
6719 6690 3 4.6711546710025136e+00 -1.0532192060624181e+00 -5.4581506701112525e+00 -2 -3 -9
889 860 2 4.5557218969624751e+00 -2.7083265864587371e+00 -5.0704609765954380e+00 3 1 10
898 869 2 4.1428336188860673e+00 -2.5004164105798568e+00 5.5768691654685085e+00 -1 -2 2
6657 6628 3 4.8650800069477320e+00 -1.5658015090035564e+00 -5.1889716480068069e+00 -2 1 -4
4981 4952 2 5.1593216765114045e+00 -3.2449182743156979e+00 -4.7487177630302675e+00 -6 0 1
2806 2777 2 -5.1723098787588659e+00 -4.0947975419924560e+00 5.2652952494814533e+00 -3 -7 8
4842 4813 2 -4.9133293181524111e+00 -1.7587643845900101e+00 -4.2870054748294280e+00 4 -4 -2
3922 3893 2 5.3787066480374026e+00 -3.8839291829543482e-01 -5.0279713807851358e+00 -2 4 3
5164 5135 2 -5.1492978336543542e+00 -3.0248300485274751e+00 5.1676116644708641e+00 1 1 0
2646 2617 2 -5.3682037834079468e+00 -2.4349409922383551e+00 5.6856103396690001e+00 4 -5 0
973 944 2 -5.5714495769183667e+00 -1.7704459020448924e+00 -5.7402908548550329e+00 3 -1 3
3627 3598 2 5.3727775785051897e+00 -1.8838494424509025e+00 -4.9111414253799728e+00 -3 2 1
1368 1339 2 4.8619638127400968e+00 -1.5129712075019774e+00 -4.6256516712608935e+00 3 -1 7
5711 5682 2 -4.2117092441598434e+00 -2.3106898300968250e+00 5.0406759577615645e+00 -2 2 -3
1723 1694 2 -8.3811528522078915e-01 -3.6530663682808129e+00 -5.6286809444903954e+00 -11 -8 0
2404 2375 2 -4.2428555882503352e+00 -2.1782724824372783e+00 -5.4653726630628716e+00 0 11 0
2966 2937 2 -2.6670199309278040e+00 -2.0414470511624154e+00 -5.7162726753861639e+00 1 1 4
1496 1467 2 -5.5547363486332619e+00 -1.2457455323709652e+00 -4.9118996939414012e+00 1 -5 -8
225 196 2 -4.3786682564428316e+00 -2.3427605917825418e+00 -4.3212995089810073e+00 -3 1 -3
3745 3716 2 -2.4200867195559548e+00 -3.0427862090737272e+00 5.4036282970299849e+00 -1 -3 -6
5151 5122 2 -4.8186917960993938e+00 -2.4239589545913263e+00 5.7721907060314415e+00 -3 3 -2
5965 5936 2 -3.6751990073375338e+00 -1.2548391889109269e+00 -5.3023587370566432e+00 -3 2 6
361 332 2 -4.8523405222289009e+00 -1.8698287875418502e+00 4.9601084494981977e+00 -2 1 -1
2623 2594 2 -4.9588017626621079e+00 -7.5744436073635457e-01 -4.3655260499020558e+00 0 6 -9
1475 1446 2 -3.8967970471900726e+00 -9.0579771749829785e-01 -4.8692027284494577e+00 -6 1 -8
3476 3447 2 -1.1311404769631026e+00 -1.4553613915847614e+00 -5.4612928789607524e+00 -6 4 6
2818 2789 2 -3.6300114959994283e+00 -7.3292354817519545e-01 5.4290459186715534e+00 -9 0 -3
3444 3415 2 -1.7885280221472697e+00 -1.6127388306730899e+00 -5.6354212085928737e+00 1 5 2
1270 1241 2 -4.5709322245035082e+00 -9.1385461218679820e-01 5.5995496881655864e+00 2 6 0
3857 3828 2 -3.2962742729685499e+00 -1.9918790537054103e+00 5.7230417288139916e+00 -3 5 -7
3436 3407 2 -2.5658915315771877e+00 -9.6490717873393650e-01 5.1898434041681298e+00 2 -6 -3
2110 2081 2 -5.5998499156450421e-01 -6.0593054591822382e-01 -5.6668997954270086e+00 1 -4 4
5466 5437 2 -2.2525481754234797e+00 -1.6979969212009061e+00 -4.9685174378033139e+00 3 13 -5
4468 4439 2 -1.2818401095501806e+00 -1.6260441154607739e+00 -4.6404115203207601e+00 8 3 5
2291 2262 2 -1.4094509876266859e+00 -1.8325248283969486e+00 -5.1541973700419303e+00 3 -1 6
3606 3577 2 -7.2797912305677193e-01 -6.7523328437319952e-01 5.1865517404338357e+00 7 -5 0
1700 1671 2 -1.4910019517227444e-01 -1.3303874733340810e+00 -5.1082998715602077e+00 -9 5 9
4057 4028 2 -1.8192747534867242e+00 -2.5849103150283796e+00 -4.1489451157395951e+00 -1 -6 -11
613 584 2 2.8191220797315047e-01 -2.1965813454417811e+00 5.1186942730080913e+00 0 0 7
6323 6294 3 -2.0847896952961134e-01 -2.4600800114448091e+00 5.1222695033980239e+00 0 -8 4
1197 1168 2 -6.3729460901351342e-01 -1.4728676929932512e+00 -5.5910398739668024e+00 -2 -5 -5
4380 4351 2 -2.5396892762086820e-01 -1.4282504493962001e+00 -4.0609560131431719e+00 -7 5 -10
2195 2166 2 1.8492332724606897e-01 -3.2803684260694386e+00 -5.5350727483785516e+00 -9 1 -4
570 541 2 2.2851032413643552e-01 -2.6149191104156340e+00 -4.9737069979393196e+00 -8 7 -3
2114 2085 2 -9.1529728142520084e-01 -2.1067434682454187e+00 -5.3194961779909899e+00 0 4 13
6763 6734 3 1.5105846573818049e+00 -2.1434774063999900e+00 -5.0213119753093638e+00 7 -3 -2
569 540 2 3.1521194180216699e-01 -1.6952538988676178e+00 -4.0128679794154998e+00 9 2 -3
4501 4472 2 2.9875326987797535e-01 -3.0631654148947893e+00 -4.6681930853544698e+00 1 1 0
3759 3730 2 8.5746472038209787e-01 -1.4261639998663416e+00 -3.9477388956308355e+00 -1 10 4
4652 4623 2 7.2095069749422069e-01 -6.3505692001994440e-01 -5.2775932484431030e+00 0 -4 -1
234 205 2 2.0959317002453455e+00 -1.1985403277264695e+00 -3.8059048432388254e+00 -3 0 1
5687 5658 2 2.5864319192325165e+00 -3.2707723340013524e+00 -5.6548943992237541e+00 2 1 -10
3066 3037 2 3.7605758357898089e-01 -1.4182363420978648e+00 4.9609148018191620e+00 -4 2 -13
1050 1021 2 2.2295901535125662e+00 -5.6694147725679067e-01 -5.3364981451040681e+00 -2 3 12
4463 4434 2 1.3338689138557269e+00 -1.8462367690556236e+00 -5.7672379132517895e+00 -1 1 -6
2795 2766 2 1.5859779092274771e+00 -1.6989009234208694e+00 -5.3232980154070946e+00 -6 -6 4
4536 4507 2 1.1662755550415269e+00 -8.6820675786435975e-01 5.0552121354072970e+00 10 0 0
2596 2567 2 2.6466536713044220e+00 -2.0975098897097895e+00 -5.0122703262325219e+00 0 -2 0
5099 5070 2 2.6451830068818247e+00 -1.3619704835133928e+00 5.6717097163683823e+00 7 -3 0
827 798 2 3.1036000797736047e+00 -8.1291107918308048e-01 -5.7484954365382768e+00 2 -8 7
5639 5610 2 3.3281111530668648e+00 -2.4393859886293310e+00 4.5655685148454603e+00 -4 -6 -1
3443 3414 2 2.3252618157906908e+00 -1.8397733675726899e+00 -5.3954656051705090e+00 1 4 -3
1877 1848 2 3.8790959289145284e+00 -2.2332387735272419e+00 -5.0606756882530863e+00 -2 -1 -8
5461 5432 2 3.0468923005019670e+00 -2.0437179347412346e+00 -5.3633723250176342e+00 2 -3 2
1018 989 2 4.2068573118179859e+00 -2.1101747712647243e+00 -4.2656269204509796e+00 -1 10 3
861 832 2 3.4773542135535038e+00 -1.2545691385851947e+00 -5.2578862677183684e+00 5 -6 -2
2086 2057 2 4.5620245615880526e+00 -1.6848260191579607e+00 -3.6124098672786058e+00 1 7 4
5601 5572 2 3.5353388233467253e+00 -8.1526715157812002e-01 4.5815796560170501e+00 5 11 5
4141 4112 2 2.9032937602921352e+00 -7.6246323707879093e-01 -5.2223495874757084e+00 -6 2 2
3847 3818 2 5.7746556696765365e+00 -4.8264293014591952e-01 -4.6386780098837939e+00 -1 1 0
3158 3129 2 5.3970190923062997e+00 -2.5338580918110245e+00 -4.1583760084252122e+00 2 -2 5
818 789 2 4.7677257842954841e+00 -3.0401130995099708e+00 5.6157445335449818e+00 0 -3 1
3186 3157 2 -5.5045325164165373e+00 -1.4613355877498040e+00 -4.0846922816113187e+00 4 -1 -8
3323 3294 2 4.5768802137525961e+00 -1.6805943592618702e+00 -4.1807717822640011e+00 7 -6 2
3795 3766 2 -5.3193820976027535e+00 -1.8496581383181789e+00 -3.6784777606746784e+00 1 1 -4
675 646 2 4.0647451675739381e+00 -1.7539153578166520e+00 -5.2312165824149224e+00 9 7 -1
2091 2062 2 5.1476582269042606e+00 -8.4687649458790881e-01 -5.2566420287496491e+00 -5 2 5
2705 2676 2 4.7388572358952050e+00 -7.3435710723870817e-01 -4.1781702830866028e+00 2 11 -3
475 446 2 -5.4024374177184580e+00 -1.2552387640289393e+00 -5.5507876883545251e+00 -3 10 5
834 805 2 -5.7414639781054131e+00 -9.2056757507037112e-01 5.7082792184546864e+00 1 4 -2
2868 2839 2 -5.5629145976238670e+00 3.8647132313586369e-01 -4.6070655132977327e+00 -1 10 -3
880 851 2 -5.1573316577154333e+00 -1.6095933502636637e+00 -4.7630161406701941e+00 -4 -4 4
5470 5441 2 -4.8036767181274413e+00 -7.6008399654910297e-01 -5.1145999702023008e+00 -5 -5 -3
285 256 2 5.4102332099327874e+00 -3.1308935733588900e-01 -5.5926283653075162e+00 -1 13 0
5635 5606 2 -4.7477139535172430e+00 7.7744956725595693e-01 -4.5874973553587841e+00 -3 -6 5
89 60 2 -4.1046847284655765e+00 3.3989346779085994e-01 -3.8203477221020750e+00 4 1 7
5030 5001 2 -3.7874926324501641e+00 -2.2873920691798730e-01 -4.8701011785717183e+00 -1 -1 -1
5938 5909 2 -4.0541083577247550e+00 -1.4291552988356473e+00 -4.8671920606587262e+00 -2 2 -1
2440 2411 2 -4.4686878717542635e+00 7.0981708745471495e-01 -5.1405951079898191e+00 2 2 5
946 917 2 -3.7737185965505713e+00 -1.8771799045014521e+00 -5.6059129496889257e+00 -4 -4 -5
3503 3474 2 -4.2048666851678167e+00 -3.0116925088862539e-01 -5.1458659372272137e+00 3 -2 -4
3578 3549 2 -4.8505744132509960e+00 -1.3964274775375296e+00 -5.1993782639548325e+00 -5 -7 6
5531 5502 2 -1.1104297076822034e+00 -3.8853736066948086e-02 -5.4193754644534593e+00 5 5 -3
2096 2067 2 -2.4631442251321771e+00 -1.0611222051195275e+00 -4.9440267510681819e+00 0 3 1
2338 2309 2 -3.2444078991403726e+00 -8.0710754125401241e-01 -5.0443273417527292e+00 6 -6 -1
2851 2822 2 -2.7537933416697706e+00 -8.8070295400361431e-01 -5.3517113771290781e+00 7 -2 2
484 455 2 -3.6591695192849105e+00 -6.1140356576130961e-01 -4.4464995400001559e+00 -7 -1 4
5175 5146 2 -1.2862667092223947e+00 -1.0100738725853644e+00 -5.2463483707971905e+00 10 2 5
5452 5423 2 -2.3681619539975807e+00 2.2787789182471116e-01 -4.6755538296227055e+00 -2 -4 -6
4639 4610 2 -1.1847188759944602e+00 -5.1450597442771771e-02 -4.8547756037873393e+00 4 -2 0
3766 3737 2 -2.1490979507155222e-01 1.9987307347519764e-01 5.6782057632035272e+00 9 -9 -11
848 819 2 -2.0805336391788125e+00 -1.1558693041693742e-01 -5.5001816472532372e+00 2 -6 -5
3290 3261 2 -1.7740500778650972e+00 -5.5852338245056554e-01 -4.1494514408059242e+00 -7 -3 -4
3123 3094 2 -7.1658680833967203e-01 -1.3879505651217114e-01 4.9965854169310928e+00 14 0 -9
4944 4915 2 -5.4505370843411138e-01 -2.8036445562461865e-01 -5.0557822508894095e+00 -3 -5 1
4409 4380 2 -1.4767186351960691e+00 -1.8292953047167235e-01 -3.7896401624699521e+00 3 -2 2
60 31 2 -2.3526347913496834e-01 1.3300949162141820e-01 -5.1013141883314610e+00 8 7 7
5632 5603 2 3.9739931846778326e-01 -7.2724171322647010e-02 5.5493815045196122e+00 -4 6 -4
6522 6493 3 -7.0211896420584674e-01 -9.0776577188035751e-02 5.6152020385502555e+00 -2 0 -3
6357 6328 3 1.5245919103989714e-01 -2.5524833701476757e-01 -5.3217716159384496e+00 0 3 4
1012 983 2 1.3041807937814602e+00 -1.0268509444843446e+00 -5.2246361277946765e+00 10 6 -6
4831 4802 2 9.5027633158783553e-01 5.1786027412738822e-01 -5.3754993320916959e+00 -2 -4 -3
5700 5671 2 -1.9798756511633814e-01 -2.3016540875001925e+00 -4.7502820602863478e+00 5 2 3
6478 6449 3 2.1636101779319237e+00 -1.2758576941541646e+00 -5.2602560135123637e+00 -7 1 -10
858 829 2 2.0735373055848927e-01 -6.3829440395192416e-01 -4.8517349278291677e+00 0 8 -3
1661 1632 2 1.1428927972988596e+00 -2.4231173857630833e-01 -5.1822202909881208e+00 4 9 3
264 235 2 3.7946574099002184e-01 -1.1215233645132208e+00 -5.2209291802917184e+00 4 -2 -4
4704 4675 2 9.8034002306376233e-01 -1.8845389564868864e+00 -4.7619770185397483e+00 2 7 -2
6104 6075 2 1.3001710369815340e+00 -1.4435766946154323e+00 -4.6044048601203196e+00 -1 4 1
279 250 2 2.3873714169885991e+00 3.6667087784978392e-01 -5.6976921023221516e+00 -3 -8 4
812 783 2 2.3960072350728709e+00 -4.5380159069582350e-02 -5.3634153393108006e+00 5 -2 -1
1033 1004 2 1.6793863728855400e+00 -1.0833476973074303e+00 -4.7354502342885771e+00 -6 1 0
4083 4054 2 4.0994937571314011e-01 -6.1724620741153424e-01 5.5986898674781065e+00 -7 5 4
4525 4496 2 2.6854257854482650e+00 -7.3772121360548248e-01 -4.3556592261659128e+00 4 13 -1
3404 3375 2 2.2427371918717300e+00 -5.7550254772795673e-01 4.7613348519218883e+00 2 0 6
3040 3011 2 3.3344595215987773e+00 -1.5403633425876602e+00 -4.2620456088149448e+00 -4 2 -2
6182 6153 3 4.6209108590299062e+00 -1.8081117394172352e+00 5.0225298444237874e+00 2 -4 -3
3907 3878 2 3.2701041246711569e+00 2.4651273834494325e-01 -4.9014761974670025e+00 -14 -2 10
5127 5098 2 2.6660815920186263e+00 -4.3544311049190443e-01 -4.7943611927598999e+00 6 -2 -1
4573 4544 2 3.9290488188282096e+00 -1.2802840212591051e+00 -4.9800267367804780e+00 1 2 1
5903 5874 2 3.4349336768398437e+00 -5.7093307605253696e-01 -5.2054909471630939e+00 -3 10 5