ITEM: TIMESTEP
0
ITEM: NUMBER OF ATOMS
30
ITEM: BOX BOUNDS pp pp pp
-5.7758099999999999e+00 5.7758099999999999e+00
-5.7758099999999999e+00 5.7758099999999999e+00
-5.7758099999999999e+00 5.7758099999999999e+00
ITEM: ATOMS id mol type xu yu zu 
1 1 1 2.07407 18.3519 -13.2156 
2 1 1 2.73772 18.352 -13.897 
3 1 1 2.74342 18.1424 -14.8284 
4 1 1 2.21163 18.0751 -15.6672 
5 1 1 2.04013 17.4492 -16.4202 
6 1 1 1.53797 17.0994 -15.6773 
7 1 1 1.42269 17.0311 -14.7509 
8 1 1 0.463615 16.9794 -14.6711 
9 1 1 0.410109 17.7232 -15.2274 
10 1 1 -0.162221 18.3194 -14.7183 
11 1 1 -0.402537 18.1184 -13.8111 
12 1 1 0.429022 18.0067 -13.3598 
13 1 1 0.430507 17.0836 -13.5536 
14 1 1 1.32196 16.8783 -13.1953 
15 1 1 1.85344 17.272 -12.5145 
16 1 1 2.78811 17.1711 -12.6059 
17 1 1 3.38403 16.6074 -13.1004 
18 1 1 3.92334 16.1255 -12.3988 
19 1 1 3.79402 15.2148 -12.216 
20 1 1 2.98618 15.2297 -12.6964 
21 1 1 2.23024 15.4948 -13.2336 
22 1 1 2.11366 16.0033 -14.0288 
23 1 1 2.65105 15.2719 -14.345 
24 1 1 3.08953 15.4414 -15.1468 
25 1 1 3.40316 15.4912 -16.0481 
26 1 1 3.0829 14.9024 -16.7663 
27 1 1 3.09515 14.7029 -17.702 
28 1 1 2.53881 13.9229 -17.5815 
29 1 1 2.02948 13.2087 -17.9916 
30 1 1 2.44651 13.2038 -18.847 
ITEM: TIMESTEP
1000
ITEM: NUMBER OF ATOMS
30
ITEM: BOX BOUNDS pp pp pp
-5.7758099999999999e+00 5.7758099999999999e+00
-5.7758099999999999e+00 5.7758099999999999e+00
-5.7758099999999999e+00 5.7758099999999999e+00
ITEM: ATOMS id mol type xu yu zu 
1 1 1 2.38662 18.0601 -13.6321 
2 1 1 2.6386 17.229 -14.0909 
3 1 1 2.98691 17.5553 -14.9198 
4 1 1 2.35827 17.6539 -15.5814 
5 1 1 1.5626 17.5435 -16.076 
6 1 1 1.86418 16.7377 -15.5691 
7 1 1 1.45085 16.8215 -14.6803 
8 1 1 0.561814 16.5897 -14.8494 
9 1 1 0.311375 17.4953 -15.119 
10 1 1 -0.120105 18.179 -14.6161 
11 1 1 0.15002 17.7452 -13.8076 
12 1 1 0.895927 17.4817 -13.2862 
13 1 1 0.772703 16.5196 -13.3773 
14 1 1 1.15285 16.3945 -12.5288 
15 1 1 1.77661 17.0705 -12.1667 
16 1 1 2.72038 16.8504 -12.3469 
17 1 1 3.11197 16.3406 -13.0661 
18 1 1 3.26135 15.9606 -12.1898 
19 1 1 3.182 15.0756 -12.5179 
20 1 1 2.29369 15.0538 -12.9278 
21 1 1 1.74337 15.5443 -13.5093 
22 1 1 2.36731 15.7039 -14.2611 
23 1 1 2.90361 14.9454 -14.4812 
24 1 1 3.70253 14.8653 -15.0681 
25 1 1 3.51056 15.1986 -15.9614 
26 1 1 3.05808 14.4579 -16.3351 
27 1 1 3.50095 14.1768 -17.0843 
28 1 1 2.90105 13.4468 -17.266 
29 1 1 2.94588 13.1686 -18.2657 
30 1 1 2.17396 13.3523 -18.729 
ITEM: TIMESTEP
2000
ITEM: NUMBER OF ATOMS
30
ITEM: BOX BOUNDS pp pp pp
-5.7758099999999999e+00 5.7758099999999999e+00
-5.7758099999999999e+00 5.7758099999999999e+00
-5.7758099999999999e+00 5.7758099999999999e+00
ITEM: ATOMS id mol type xu yu zu 
1 1 1 2.66459 17.6891 -13.561 
2 1 1 2.36185 17.3025 -14.3713 
3 1 1 2.43075 17.9712 -15.0671 
4 1 1 2.51938 17.4935 -15.918 
5 1 1 1.89452 17.0141 -16.4443 
6 1 1 1.32745 16.6592 -15.7089 
7 1 1 1.13826 16.9505 -14.818 
8 1 1 0.230389 16.6764 -14.9836 
9 1 1 0.240084 17.5968 -14.809 
10 1 1 0.291045 18.4641 -14.4433 
11 1 1 -0.255849 18.3143 -13.6737 
12 1 1 0.0891626 17.6058 -13.1271 
13 1 1 0.424425 16.7751 -13.4167 
14 1 1 0.821619 16.4697 -12.5952 
15 1 1 1.64062 16.9671 -12.4568 
16 1 1 2.52569 16.7736 -12.0624 
17 1 1 3.07799 16.5447 -12.8131 
18 1 1 3.34606 15.7966 -12.2918 
19 1 1 3.16808 15.1706 -13.0438 
20 1 1 2.18449 15.0389 -12.9905 
21 1 1 1.98708 15.7452 -13.6002 
22 1 1 2.57618 15.6348 -14.3553 
23 1 1 2.82196 14.7444 -14.5069 
24 1 1 3.64364 14.6128 -15.0082 
25 1 1 3.27963 15.1088 -15.7093 
26 1 1 2.57964 14.5841 -16.0684 
27 1 1 2.74856 13.8113 -16.6263 
28 1 1 2.32557 13.603 -17.5116 
29 1 1 2.50722 12.9336 -18.2066 
30 1 1 2.19623 13.2372 -19.1194 
ITEM: TIMESTEP
3000
ITEM: NUMBER OF ATOMS
30
ITEM: BOX BOUNDS pp pp pp
-5.7758099999999999e+00 5.7758099999999999e+00
-5.7758099999999999e+00 5.7758099999999999e+00
-5.7758099999999999e+00 5.7758099999999999e+00
ITEM: ATOMS id mol type xu yu zu 
1 1 1 2.63902 18.2083 -13.5691 
2 1 1 2.03454 17.4787 -13.749 
3 1 1 2.01427 17.4441 -14.6946 
4 1 1 2.38386 17.953 -15.4519 
5 1 1 2.09665 17.4188 -16.2093 
6 1 1 1.47934 16.7037 -16.1006 
7 1 1 1.25563 16.7677 -15.1651 
8 1 1 0.372703 16.5885 -14.9348 
9 1 1 -0.0829582 17.3663 -15.0443 
10 1 1 -0.267684 18.1626 -14.5696 
11 1 1 -0.730976 17.8652 -13.7669 
12 1 1 -0.185079 17.2924 -13.274 
13 1 1 0.682267 17.0881 -13.573 
14 1 1 1.0204 16.9342 -12.6959 
15 1 1 1.70511 17.525 -12.3614 
16 1 1 2.52956 17.0281 -12.267 
17 1 1 3.08025 16.6351 -13.0157 
18 1 1 3.70524 15.9532 -12.6201 
19 1 1 3.39293 15.1352 -12.9902 
20 1 1 2.49645 14.9471 -12.8371 
21 1 1 2.20928 15.7691 -13.2588 
22 1 1 2.46771 15.4889 -14.1756 
23 1 1 2.8992 14.6814 -14.4599 
24 1 1 3.6802 15.1681 -14.6267 
25 1 1 3.69797 15.1762 -15.5848 
26 1 1 3.11889 14.6238 -16.12 
27 1 1 3.0527 13.8955 -16.7628 
28 1 1 3.28606 13.1977 -17.3119 
29 1 1 3.12909 12.9541 -18.2228 
30 1 1 2.961 13.1081 -19.1771 
ITEM: TIMESTEP
4000
ITEM: NUMBER OF ATOMS
30
ITEM: BOX BOUNDS pp pp pp
-5.7758099999999999e+00 5.7758099999999999e+00
-5.7758099999999999e+00 5.7758099999999999e+00
-5.7758099999999999e+00 5.7758099999999999e+00
ITEM: ATOMS id mol type xu yu zu 
1 1 1 2.90125 18.5276 -13.1214 
2 1 1 2.16436 18.5116 -13.7679 
3 1 1 1.91421 17.9501 -14.5803 
4 1 1 2.35226 17.9547 -15.4509 
5 1 1 2.06527 17.4682 -16.2427 
6 1 1 1.73919 16.5453 -16.2839 
7 1 1 1.35678 16.5957 -15.3699 
8 1 1 0.502713 17.0018 -15.1953 
9 1 1 -0.376247 17.4648 -15.1464 
10 1 1 -0.33758 17.9745 -14.375 
11 1 1 -1.10584 17.6063 -13.9398 
12 1 1 -0.263912 17.2836 -13.5876 
13 1 1 0.67624 17.4993 -13.8005 
14 1 1 1.41739 17.3079 -13.1879 
15 1 1 2.28133 17.2428 -12.8217 
16 1 1 2.98335 16.9762 -12.2617 
17 1 1 3.47106 16.2729 -12.6682 
18 1 1 3.90448 15.4271 -12.7572 
19 1 1 3.25907 14.7401 -12.6573 
20 1 1 2.38697 15.1444 -12.6435 
21 1 1 2.00725 15.792 -13.2449 
22 1 1 2.2863 15.6347 -14.0961 
23 1 1 2.99338 14.9695 -14.0141 
24 1 1 3.61443 15.1706 -14.7277 
25 1 1 3.8742 14.6373 -15.5368 
26 1 1 3.02563 14.2151 -15.6794 
27 1 1 3.3042 13.898 -16.5314 
28 1 1 3.1105 13.5381 -17.404 
29 1 1 3.3349 13.3226 -18.2982 
30 1 1 2.98641 13.255 -19.1715 
ITEM: TIMESTEP
5000
ITEM: NUMBER OF ATOMS
30
ITEM: BOX BOUNDS pp pp pp
-5.7758099999999999e+00 5.7758099999999999e+00
-5.7758099999999999e+00 5.7758099999999999e+00
-5.7758099999999999e+00 5.7758099999999999e+00
ITEM: ATOMS id mol type xu yu zu 
1 1 1 2.10615 18.5083 -13.4283 
2 1 1 1.45406 18.1162 -14.02 
3 1 1 1.9515 17.6184 -14.6681 
4 1 1 2.53834 17.9871 -15.2747 
5 1 1 2.48694 17.2415 -15.9241 
6 1 1 1.86192 16.578 -16.2464 
7 1 1 1.25115 16.6783 -15.5512 
8 1 1 0.329769 16.915 -15.455 
9 1 1 -0.352364 17.2413 -14.9276 
10 1 1 -0.285773 18.0994 -14.5013 
11 1 1 -0.52441 17.9912 -13.5866 
12 1 1 -0.143897 17.1394 -13.2659 
13 1 1 0.480801 16.9723 -13.983 
14 1 1 1.13265 16.5032 -13.4401 
15 1 1 1.94152 16.9516 -13.1707 
16 1 1 2.62543 17.3036 -12.6001 
17 1 1 3.38767 16.7329 -12.5291 
18 1 1 4.04392 16.0062 -12.4374 
19 1 1 3.63387 15.1148 -12.5809 
20 1 1 2.71182 15.3069 -12.391 
21 1 1 2.12722 15.0812 -13.0871 
22 1 1 2.32533 15.3799 -14.0031 
23 1 1 3.26745 15.1396 -14.1486 
24 1 1 3.38212 15.5268 -14.9419 
25 1 1 3.80783 14.982 -15.6663 
26 1 1 3.88908 14.2402 -16.2363 
27 1 1 3.27922 13.4931 -16.446 
28 1 1 2.89695 13.9448 -17.2103 
29 1 1 3.50204 13.5442 -17.9038 
30 1 1 3.35553 13.0802 -18.7322 
ITEM: TIMESTEP
6000
ITEM: NUMBER OF ATOMS
30
ITEM: BOX BOUNDS pp pp pp
-5.7758099999999999e+00 5.7758099999999999e+00
-5.7758099999999999e+00 5.7758099999999999e+00
-5.7758099999999999e+00 5.7758099999999999e+00
ITEM: ATOMS id mol type xu yu zu 
1 1 1 1.52892 18.7527 -13.049 
2 1 1 1.15094 18.4549 -13.895 
3 1 1 1.15125 18.1038 -14.8035 
4 1 1 1.8156 17.9246 -15.4393 
5 1 1 2.20358 17.034 -15.5309 
6 1 1 1.6843 16.1829 -15.5872 
7 1 1 0.880098 16.7171 -15.4567 
8 1 1 0.263672 17.3861 -15.8636 
9 1 1 -0.356285 17.2069 -15.1345 
10 1 1 -0.651453 17.969 -14.6677 
11 1 1 -0.619026 18.06 -13.6867 
12 1 1 -0.483591 17.1452 -13.5478 
13 1 1 0.460606 17.032 -13.4951 
14 1 1 1.38387 16.8222 -13.68 
15 1 1 1.80285 17.3782 -12.9832 
16 1 1 2.31041 16.8128 -12.3772 
17 1 1 3.07189 16.2552 -12.3525 
18 1 1 3.65042 15.6577 -12.8949 
19 1 1 3.34167 14.8406 -12.5249 
20 1 1 2.41498 15.0307 -12.3815 
21 1 1 1.99083 15.3426 -13.1937 
22 1 1 2.55514 14.7772 -13.7815 
23 1 1 3.30479 15.0589 -14.3133 
24 1 1 3.38065 15.6149 -15.0955 
25 1 1 3.88186 15.3757 -15.8421 
26 1 1 3.73007 14.4983 -16.1924 
27 1 1 3.10415 13.9006 -16.6088 
28 1 1 2.89943 13.7101 -17.5433 
29 1 1 3.14998 13.3618 -18.4278 
30 1 1 4.10891 13.318 -18.6198 
ITEM: TIMESTEP
7000
ITEM: NUMBER OF ATOMS
30
ITEM: BOX BOUNDS pp pp pp
-5.7758099999999999e+00 5.7758099999999999e+00
-5.7758099999999999e+00 5.7758099999999999e+00
-5.7758099999999999e+00 5.7758099999999999e+00
ITEM: ATOMS id mol type xu yu zu 
1 1 1 1.21977 18.6591 -12.8879 
2 1 1 1.41297 18.2977 -13.7969 
3 1 1 1.48584 17.8835 -14.6125 
4 1 1 2.32236 17.7184 -15.0312 
5 1 1 2.14245 16.8423 -15.3684 
6 1 1 1.38539 16.67 -15.9314 
7 1 1 0.770509 16.2355 -15.3945 
8 1 1 -0.0059242 16.831 -15.4605 
9 1 1 -0.849576 17.2047 -15.3049 
10 1 1 -0.660592 18.1242 -15.0139 
11 1 1 -0.311042 17.7818 -14.1812 
12 1 1 -0.297665 17.1347 -13.5027 
13 1 1 0.605637 16.8525 -13.6679 
14 1 1 1.53744 16.7129 -13.77 
15 1 1 1.65101 17.1604 -12.9541 
16 1 1 2.53543 17.1489 -12.6601 
17 1 1 2.9552 16.3419 -12.4065 
18 1 1 3.45092 15.675 -12.9751 
19 1 1 3.45093 14.8519 -12.4752 
20 1 1 2.51676 14.8646 -12.1606 
21 1 1 2.07609 15.0477 -12.9658 
22 1 1 2.25402 15.2249 -13.9224 
23 1 1 2.95897 15.717 -14.3599 
24 1 1 3.57692 15.7551 -15.089 
25 1 1 3.97003 15.4946 -15.936 
26 1 1 3.57719 14.7125 -15.5458 
27 1 1 3.14555 14.1161 -16.114 
28 1 1 3.14903 13.6099 -16.9359 
29 1 1 3.04352 13.2846 -17.8457 
30 1 1 3.85883 12.8443 -18.1062 
ITEM: TIMESTEP
8000
ITEM: NUMBER OF ATOMS
30
ITEM: BOX BOUNDS pp pp pp
-5.7758099999999999e+00 5.7758099999999999e+00
-5.7758099999999999e+00 5.7758099999999999e+00
-5.7758099999999999e+00 5.7758099999999999e+00
ITEM: ATOMS id mol type xu yu zu 
1 1 1 1.0414 18.7722 -13.0292 
2 1 1 1.58564 18.322 -13.7415 
3 1 1 1.36232 18.063 -14.6213 
4 1 1 1.99365 17.4278 -14.9057 
5 1 1 1.95088 16.9442 -15.6867 
6 1 1 1.00363 17.0222 -15.9876 
7 1 1 0.759322 16.1852 -15.5444 
8 1 1 -0.00282204 16.5711 -15.0599 
9 1 1 -0.569269 17.1398 -15.5554 
10 1 1 -1.09197 17.7802 -15.0915 
11 1 1 -0.460453 18.0213 -14.3909 
12 1 1 -0.552618 17.2188 -13.8945 
13 1 1 0.363067 17.2598 -13.626 
14 1 1 1.16288 16.7721 -13.9392 
15 1 1 1.88386 17.0608 -13.3903 
16 1 1 2.68706 16.6573 -13.0726 
17 1 1 3.48902 16.5005 -12.5416 
18 1 1 3.9363 15.663 -12.1888 
19 1 1 3.48529 15.1094 -11.5554 
20 1 1 2.8861 14.6452 -12.1126 
21 1 1 2.85507 15.0612 -12.9283 
22 1 1 3.04851 15.3524 -13.8164 
23 1 1 2.53698 15.5966 -14.588 
24 1 1 3.16143 16.2289 -15.0067 
25 1 1 3.62187 15.7271 -15.6457 
26 1 1 3.53677 14.7822 -15.8096 
27 1 1 2.67787 14.4332 -16.2698 
28 1 1 2.88114 13.8567 -17.028 
29 1 1 2.38829 13.1 -17.2893 
30 1 1 3.08147 12.932 -18.0072 
ITEM: TIMESTEP
9000
ITEM: NUMBER OF ATOMS
30
ITEM: BOX BOUNDS pp pp pp
-5.7758099999999999e+00 5.7758099999999999e+00
-5.7758099999999999e+00 5.7758099999999999e+00
-5.7758099999999999e+00 5.7758099999999999e+00
ITEM: ATOMS id mol type xu yu zu 
1 1 1 0.967076 18.9162 -13.3379 
2 1 1 1.71477 18.4061 -13.6112 
3 1 1 1.87818 18.2145 -14.5332 
4 1 1 2.19914 17.3934 -14.8927 
5 1 1 1.93298 17.1476 -15.7758 
6 1 1 1.32494 16.496 -16.1073 
7 1 1 0.615136 15.9726 -15.6717 
8 1 1 0.145929 16.6509 -15.266 
9 1 1 -0.333147 17.3629 -15.6924 
10 1 1 -0.798015 17.9424 -15.0563 
11 1 1 -0.249071 17.8808 -14.2545 
12 1 1 0.324579 17.5497 -13.5533 
13 1 1 0.532807 16.656 -13.8891 
14 1 1 1.45949 16.5997 -13.6962 
15 1 1 2.31936 17.0109 -13.7277 
16 1 1 2.99057 16.9827 -13.0134 
17 1 1 3.21859 16.5919 -12.1622 
18 1 1 4.0553 16.0924 -12.2562 
19 1 1 3.78702 15.1796 -12.2847 
20 1 1 2.92428 14.8172 -12.0144 
21 1 1 2.38756 15.0781 -12.7593 
22 1 1 2.76464 15.4901 -13.5366 
23 1 1 2.73697 15.7721 -14.4441 
24 1 1 3.45409 15.9608 -15.0825 
25 1 1 3.48838 15.6148 -15.9832 
26 1 1 3.56076 14.6846 -15.8558 
27 1 1 3.28995 13.8564 -16.2267 
28 1 1 2.64075 14.0374 -16.9256 
29 1 1 2.24805 13.636 -17.6489 
30 1 1 3.03501 13.3337 -18.1921 
ITEM: TIMESTEP
10000
ITEM: NUMBER OF ATOMS
30
ITEM: BOX BOUNDS pp pp pp
-5.7758099999999999e+00 5.7758099999999999e+00
-5.7758099999999999e+00 5.7758099999999999e+00
-5.7758099999999999e+00 5.7758099999999999e+00
ITEM: ATOMS id mol type xu yu zu 
1 1 1 1.41412 18.6787 -12.6937 
2 1 1 1.94597 18.3965 -13.4418 
3 1 1 1.96651 18.2273 -14.3678 
4 1 1 1.82628 17.4663 -14.9565 
5 1 1 2.17657 16.7407 -15.4978 
6 1 1 1.54462 16.3023 -16.0368 
7 1 1 0.670397 16.2962 -15.6214 
8 1 1 -0.0487884 16.9186 -15.6703 
9 1 1 -0.835746 17.1394 -15.1663 
10 1 1 -0.745278 17.9797 -14.7664 
11 1 1 -0.781022 17.4535 -13.9475 
12 1 1 0.127859 17.6553 -13.7439 
13 1 1 0.763643 17.0113 -14.0531 
14 1 1 1.55356 16.6641 -13.5956 
15 1 1 2.39324 16.9954 -13.8058 
16 1 1 2.67387 17.3594 -12.9743 
17 1 1 3.39161 16.9077 -12.4942 
18 1 1 3.93905 16.1324 -12.2994 
19 1 1 4.10168 15.2075 -12.3419 
20 1 1 3.23613 14.7931 -12.157 
21 1 1 2.79358 14.7406 -13.0603 
22 1 1 2.9951 15.5713 -13.5031 
23 1 1 3.29402 15.6288 -14.3727 
24 1 1 3.86308 16.1087 -14.9602 
25 1 1 3.89746 15.4522 -15.7216 
26 1 1 3.32086 14.693 -15.5272 
27 1 1 2.75065 13.9289 -15.7547 
28 1 1 2.9852 13.8155 -16.6893 
29 1 1 2.36476 13.6423 -17.3887 
30 1 1 2.8285 12.8579 -17.6946 
ITEM: TIMESTEP
11000
ITEM: NUMBER OF ATOMS
30
ITEM: BOX BOUNDS pp pp pp
-5.7758099999999999e+00 5.7758099999999999e+00
-5.7758099999999999e+00 5.7758099999999999e+00
-5.7758099999999999e+00 5.7758099999999999e+00
ITEM: ATOMS id mol type xu yu zu 
1 1 1 1.26511 18.4031 -12.607 
2 1 1 1.35876 18.5154 -13.5511 
3 1 1 1.83342 18.3903 -14.4144 
4 1 1 2.06301 17.8558 -15.1717 
5 1 1 1.88543 16.952 -15.2847 
6 1 1 1.47182 16.0563 -15.3578 
7 1 1 0.526879 15.9483 -15.5178 
8 1 1 -0.0644952 16.7088 -15.5078 
9 1 1 -0.694153 17.4207 -15.4849 
10 1 1 -0.469419 18.1653 -14.9384 
11 1 1 -0.688335 17.9256 -14.0186 
12 1 1 -0.088561 17.17 -13.9078 
13 1 1 0.860533 16.9764 -14.097 
14 1 1 1.59705 16.5654 -13.6387 
15 1 1 2.42586 17.0387 -13.9425 
16 1 1 2.90511 17.5235 -13.2891 
17 1 1 3.45255 17.2188 -12.6275 
18 1 1 3.94324 16.3848 -12.6358 
19 1 1 3.81362 15.7744 -11.9368 
20 1 1 3.6888 14.9541 -12.3808 
21 1 1 2.86706 15.1583 -12.7938 
22 1 1 3.18559 15.3026 -13.69 
23 1 1 3.16045 16.0496 -14.2919 
24 1 1 3.4277 16.4089 -15.1125 
25 1 1 4.10106 15.7767 -15.3658 
26 1 1 3.84317 14.9064 -15.0577 
27 1 1 3.17698 14.2253 -15.2288 
28 1 1 2.74493 14.3532 -16.0519 
29 1 1 2.56433 14.1943 -16.9835 
30 1 1 2.81257 13.4384 -17.49 
ITEM: TIMESTEP
12000
ITEM: NUMBER OF ATOMS
30
ITEM: BOX BOUNDS pp pp pp
-5.7758099999999999e+00 5.7758099999999999e+00
-5.7758099999999999e+00 5.7758099999999999e+00
-5.7758099999999999e+00 5.7758099999999999e+00
ITEM: ATOMS id mol type xu yu zu 
1 1 1 1.15326 17.8388 -12.5095 
2 1 1 1.38296 18.1073 -13.3955 
3 1 1 1.54795 18.2701 -14.3121 
4 1 1 1.88886 17.488 -14.742 
5 1 1 1.90782 16.5946 -15.2055 
6 1 1 1.10685 16.0581 -15.1457 
7 1 1 0.11022 16.0773 -15.2135 
8 1 1 -0.00680579 16.923 -15.6058 
9 1 1 -0.893981 17.4011 -15.5972 
10 1 1 -0.441813 18.1861 -15.2609 
11 1 1 -0.61288 17.9126 -14.3686 
12 1 1 0.0103614 17.1837 -14.167 
13 1 1 0.504448 16.4729 -13.7887 
14 1 1 1.4017 16.6043 -13.4889 
15 1 1 2.29292 16.837 -13.2687 
16 1 1 2.82771 17.3875 -12.6472 
17 1 1 3.63031 17.2043 -12.2343 
18 1 1 3.63401 16.4008 -12.8525 
19 1 1 3.92867 16.0063 -12.0571 
20 1 1 3.78986 15.0484 -11.9356 
21 1 1 3.53393 14.7228 -12.7851 
22 1 1 2.99677 14.9206 -13.5799 
23 1 1 2.71112 15.6345 -14.1486 
24 1 1 3.58925 15.9514 -14.3461 
25 1 1 4.39527 15.8316 -14.7568 
26 1 1 3.84074 15.1041 -15.0656 
27 1 1 3.63086 14.1958 -15.181 
28 1 1 3.00046 13.9304 -15.8717 
29 1 1 2.83847 14.4621 -16.6723 
30 1 1 3.25231 13.8704 -17.3731 
ITEM: TIMESTEP
13000
ITEM: NUMBER OF ATOMS
30
ITEM: BOX BOUNDS pp pp pp
-5.7758099999999999e+00 5.7758099999999999e+00
-5.7758099999999999e+00 5.7758099999999999e+00
-5.7758099999999999e+00 5.7758099999999999e+00
ITEM: ATOMS id mol type xu yu zu 
1 1 1 1.36025 18.1754 -12.9703 
2 1 1 1.94034 18.312 -13.7735 
3 1 1 1.60066 18.03 -14.6427 
4 1 1 2.26398 17.493 -15.0584 
5 1 1 2.03495 16.6134 -15.3554 
6 1 1 1.35411 15.9132 -15.4367 
7 1 1 0.552505 16.388 -15.1931 
8 1 1 0.181925 16.8849 -15.9506 
9 1 1 -0.519168 17.4521 -15.7339 
10 1 1 -0.937511 18.1817 -15.3532 
11 1 1 -1.14695 17.8482 -14.4816 
12 1 1 -0.294739 17.4947 -14.2026 
13 1 1 0.600284 17.2586 -13.7769 
14 1 1 1.39839 16.7732 -13.8113 
15 1 1 2.27852 16.9964 -13.4438 
16 1 1 2.8348 17.4343 -12.7765 
17 1 1 3.79138 17.349 -12.6815 
18 1 1 4.22931 16.4544 -12.6204 
19 1 1 4.44738 15.8944 -11.871 
20 1 1 4.17451 15.2335 -12.5185 
21 1 1 3.43998 14.6371 -12.6591 
22 1 1 3.19073 14.8567 -13.5851 
23 1 1 2.651 15.5987 -13.9421 
24 1 1 3.12788 16.2909 -14.3891 
25 1 1 3.92481 15.8686 -14.7334 
26 1 1 4.09213 15.1015 -15.242 
27 1 1 3.17302 14.7798 -15.2532 
28 1 1 2.86521 14.6078 -16.1732 
29 1 1 3.38619 14.3793 -16.9768 
30 1 1 3.55274 13.7903 -17.7215 
ITEM: TIMESTEP
14000
ITEM: NUMBER OF ATOMS
30
ITEM: BOX BOUNDS pp pp pp
-5.7758099999999999e+00 5.7758099999999999e+00
-5.7758099999999999e+00 5.7758099999999999e+00
-5.7758099999999999e+00 5.7758099999999999e+00
ITEM: ATOMS id mol type xu yu zu 
1 1 1 1.7171 18.3887 -13.1918 
2 1 1 2.15946 18.4951 -14.038 
3 1 1 1.92915 17.8637 -14.6899 
4 1 1 2.47914 17.3232 -15.1838 
5 1 1 2.00994 16.5452 -15.4357 
6 1 1 1.3512 15.8676 -15.4802 
7 1 1 0.381382 16.0272 -15.4114 
8 1 1 0.200132 16.8705 -15.9076 
9 1 1 -0.152642 17.7599 -15.9329 
10 1 1 -0.497465 18.2992 -15.2124 
11 1 1 -0.584094 17.6887 -14.4852 
12 1 1 0.380658 17.8782 -14.3286 
13 1 1 0.690356 17.2491 -13.6458 
14 1 1 1.2727 16.4921 -13.5621 
15 1 1 2.1372 16.8795 -13.4376 
16 1 1 2.4209 17.5127 -12.752 
17 1 1 3.2328 17.053 -12.5598 
18 1 1 3.88768 16.3791 -12.7897 
19 1 1 4.18244 15.5545 -12.371 
20 1 1 3.72634 14.8775 -12.8164 
21 1 1 2.81574 14.7662 -13.0372 
22 1 1 2.86229 14.4365 -13.9348 
23 1 1 2.76349 15.2568 -14.4394 
24 1 1 3.19338 16.1171 -14.6692 
25 1 1 4.13432 16.2298 -14.7866 
26 1 1 4.37549 15.3248 -14.9789 
27 1 1 3.7285 14.8223 -15.4676 
28 1 1 3.05008 14.9358 -16.1384 
29 1 1 2.9383 14.8112 -17.0809 
30 1 1 2.6602 14.5793 -18.0035 
ITEM: TIMESTEP
15000
ITEM: NUMBER OF ATOMS
30
ITEM: BOX BOUNDS pp pp pp
-5.7758099999999999e+00 5.7758099999999999e+00
-5.7758099999999999e+00 5.7758099999999999e+00
-5.7758099999999999e+00 5.7758099999999999e+00
ITEM: ATOMS id mol type xu yu zu 
1 1 1 1.54384 18.6449 -13.1546 
2 1 1 1.85267 18.4953 -14.0525 
3 1 1 1.93145 17.9045 -14.7674 
4 1 1 2.09502 17.2172 -15.3931 
5 1 1 1.85958 16.2712 -15.5288 
6 1 1 1.21395 15.5746 -15.1428 
7 1 1 0.269452 15.871 -15.2678 
8 1 1 0.072841 16.7355 -15.6334 
9 1 1 0.337585 17.6362 -15.6786 
10 1 1 -0.0992876 18.4324 -15.3819 
11 1 1 -0.766062 18.2158 -14.7373 
12 1 1 -0.346427 17.5487 -14.1813 
13 1 1 0.501719 17.0918 -14.2261 
14 1 1 1.32239 16.7114 -14.2132 
15 1 1 2.26767 16.7309 -13.8502 
16 1 1 2.05682 17.2627 -13.032 
17 1 1 2.90897 17.4511 -12.777 
18 1 1 3.43545 16.6708 -12.9819 
19 1 1 3.85237 15.8773 -12.6442 
20 1 1 3.51179 15.0835 -13.0338 
21 1 1 2.56492 15.0026 -12.9596 
22 1 1 2.66872 14.481 -13.7397 
23 1 1 2.82775 15.0172 -14.5313 
24 1 1 3.34051 15.8342 -14.2365 
25 1 1 4.32371 15.8112 -14.4404 
26 1 1 4.53406 14.937 -14.9429 
27 1 1 4.00087 14.9284 -15.7165 
28 1 1 3.2907 14.3099 -15.919 
29 1 1 2.88971 14.3089 -16.7982 
30 1 1 2.12592 14.6216 -17.2602 
ITEM: TIMESTEP
16000
ITEM: NUMBER OF ATOMS
30
ITEM: BOX BOUNDS pp pp pp
-5.7758099999999999e+00 5.7758099999999999e+00
-5.7758099999999999e+00 5.7758099999999999e+00
-5.7758099999999999e+00 5.7758099999999999e+00
ITEM: ATOMS id mol type xu yu zu 
1 1 1 1.83065 18.6396 -13.2965 
2 1 1 1.47199 18.2594 -14.0951 
3 1 1 1.31083 17.7126 -14.9458 
4 1 1 1.5999 16.8181 -15.2203 
5 1 1 1.71667 15.9463 -15.6007 
6 1 1 0.813798 15.5108 -15.7962 
7 1 1 0.0271797 15.8758 -15.3123 
8 1 1 -0.032121 16.8185 -15.2609 
9 1 1 0.0319458 17.4808 -15.9694 
10 1 1 -0.0371978 18.3079 -15.523 
11 1 1 -0.503683 18.0903 -14.7008 
12 1 1 -0.448877 17.5547 -13.9262 
13 1 1 0.441179 17.2293 -13.7553 
14 1 1 0.920089 16.4643 -14.0613 
15 1 1 1.81385 16.3247 -13.8407 
16 1 1 1.79309 17.0381 -13.163 
17 1 1 2.74301 17.099 -12.9031 
18 1 1 3.0752 16.8873 -12.0193 
19 1 1 3.66794 16.1606 -11.8043 
20 1 1 3.86287 15.4499 -12.3902 
21 1 1 3.15217 15.0768 -12.9265 
22 1 1 2.809 14.3977 -13.5265 
23 1 1 2.8288 15.2249 -14.1136 
24 1 1 3.77224 15.1191 -14.2186 
25 1 1 4.65159 14.768 -14.3148 
26 1 1 4.26228 14.2797 -15.0367 
27 1 1 3.90934 13.9515 -15.8774 
28 1 1 3.12927 14.4808 -16.1267 
29 1 1 2.45732 14.5723 -16.808 
30 1 1 1.72852 14.6948 -17.4173 
ITEM: TIMESTEP
17000
ITEM: NUMBER OF ATOMS
30
ITEM: BOX BOUNDS pp pp pp
-5.7758099999999999e+00 5.7758099999999999e+00
-5.7758099999999999e+00 5.7758099999999999e+00
-5.7758099999999999e+00 5.7758099999999999e+00
ITEM: ATOMS id mol type xu yu zu 
1 1 1 1.86207 18.1536 -13.0281 
2 1 1 2.01573 17.8714 -13.9724 
3 1 1 1.40536 17.7911 -14.6692 
4 1 1 1.72025 16.9535 -15.0595 
5 1 1 1.82739 16.0879 -15.4407 
6 1 1 1.03368 15.8371 -15.8922 
7 1 1 0.292055 15.8371 -15.258 
8 1 1 0.193822 16.7583 -15.1431 
9 1 1 0.484904 17.5007 -15.6054 
10 1 1 0.0662594 18.2736 -15.1865 
11 1 1 -0.490422 18.2347 -14.4262 
12 1 1 -0.600511 17.5876 -13.7508 
13 1 1 0.335054 17.3834 -13.6102 
14 1 1 0.784433 16.5444 -13.8406 
15 1 1 1.60961 16.2519 -13.5325 
16 1 1 2.21055 16.6693 -12.9219 
17 1 1 3.07189 17.0597 -12.7871 
18 1 1 3.3148 16.684 -11.9344 
19 1 1 4.12609 16.2129 -11.8113 
20 1 1 3.61686 15.4064 -11.7819 
21 1 1 2.86391 14.8169 -12.024 
22 1 1 2.5681 14.8934 -12.9533 
23 1 1 2.92834 15.0575 -13.8072 
24 1 1 3.89134 15.2438 -13.9895 
25 1 1 4.31744 14.9946 -14.8176 
26 1 1 4.40819 14.1405 -15.2647 
27 1 1 3.78761 14.4361 -15.8853 
28 1 1 2.8528 14.3654 -15.7825 
29 1 1 2.63685 14.9263 -16.5509 
30 1 1 1.85327 14.4556 -16.912 
ITEM: TIMESTEP
18000
ITEM: NUMBER OF ATOMS
30
ITEM: BOX BOUNDS pp pp pp
-5.7758099999999999e+00 5.7758099999999999e+00
-5.7758099999999999e+00 5.7758099999999999e+00
-5.7758099999999999e+00 5.7758099999999999e+00
ITEM: ATOMS id mol type xu yu zu 
1 1 1 1.95296 18.2607 -12.9836 
2 1 1 2.01105 17.8827 -13.8845 
3 1 1 1.60317 17.6337 -14.7447 
4 1 1 2.12744 16.9648 -15.192 
5 1 1 2.03228 16.0188 -15.1742 
6 1 1 1.26702 15.4905 -15.3659 
7 1 1 0.893805 16.0834 -16.0376 
8 1 1 0.621548 16.7892 -15.4625 
9 1 1 0.5197 17.5997 -15.9092 
10 1 1 -0.370139 17.9836 -15.6417 
11 1 1 -0.399408 18.4923 -14.7887 
12 1 1 0.0568329 17.8539 -14.2645 
13 1 1 0.676839 17.6099 -13.5937 
14 1 1 0.882883 16.7051 -13.7651 
15 1 1 1.43559 16.0943 -13.3012 
16 1 1 2.11463 16.7002 -13.014 
17 1 1 2.98863 16.5033 -12.7592 
18 1 1 3.59984 17.0027 -12.2307 
19 1 1 3.71733 16.3976 -11.4221 
20 1 1 3.85315 15.4324 -11.3966 
21 1 1 3.51632 15.1864 -12.304 
22 1 1 2.62139 15.1593 -12.7151 
23 1 1 2.79985 14.9917 -13.6286 
24 1 1 3.67966 14.7715 -13.9633 
25 1 1 3.85277 15.1237 -14.8285 
26 1 1 4.13966 14.4421 -15.4428 
27 1 1 3.64481 14.4566 -16.3233 
28 1 1 2.77269 14.7307 -16.7402 
29 1 1 1.90737 15.0288 -16.9868 
30 1 1 1.38697 14.2382 -17.0946 
ITEM: TIMESTEP
19000
ITEM: NUMBER OF ATOMS
30
ITEM: BOX BOUNDS pp pp pp
-5.7758099999999999e+00 5.7758099999999999e+00
-5.7758099999999999e+00 5.7758099999999999e+00
-5.7758099999999999e+00 5.7758099999999999e+00
ITEM: ATOMS id mol type xu yu zu 
1 1 1 2.18601 17.7835 -12.4194 
2 1 1 2.21908 17.7811 -13.4188 
3 1 1 2.06234 17.7106 -14.4094 
4 1 1 1.97519 16.9681 -14.9807 
5 1 1 1.57713 16.2096 -14.5119 
6 1 1 1.32645 15.5343 -15.1244 
7 1 1 1.06677 16.2239 -15.742 
8 1 1 0.563316 16.9167 -15.3813 
9 1 1 0.2087 17.7412 -15.6206 
10 1 1 -0.7334 17.888 -15.4644 
11 1 1 -0.275269 18.4777 -14.8947 
12 1 1 0.0711485 17.8937 -14.1296 
13 1 1 0.614378 17.5898 -13.4255 
14 1 1 0.247714 16.7395 -13.2045 
15 1 1 1.22773 16.6518 -13.6036 
16 1 1 1.93786 16.3353 -13.0754 
17 1 1 2.86985 16.4641 -12.8759 
18 1 1 3.52641 16.856 -12.3152 
19 1 1 3.21805 16.4243 -11.4732 
20 1 1 3.48817 15.4839 -11.4901 
21 1 1 3.47214 15.1537 -12.3682 
22 1 1 2.52828 14.9357 -12.4886 
23 1 1 2.67115 14.2048 -13.0702 
24 1 1 3.29258 14.2731 -13.7983 
25 1 1 3.60603 15.1026 -14.3756 
26 1 1 3.95864 14.5279 -15.067 
27 1 1 3.56573 14.4289 -15.9757 
28 1 1 2.9932 14.3764 -16.7549 
29 1 1 2.25696 14.268 -17.3383 
30 1 1 1.49349 14.8386 -17.2901 
ITEM: TIMESTEP
20000
ITEM: NUMBER OF ATOMS
30
ITEM: BOX BOUNDS pp pp pp
-5.7758099999999999e+00 5.7758099999999999e+00
-5.7758099999999999e+00 5.7758099999999999e+00
-5.7758099999999999e+00 5.7758099999999999e+00
ITEM: ATOMS id mol type xu yu zu 
1 1 1 2.3793 17.7908 -12.4164 
2 1 1 2.12113 17.9363 -13.3303 
3 1 1 2.0021 17.7448 -14.2714 
4 1 1 2.1743 16.8688 -14.5939 
5 1 1 2.19659 15.9234 -14.3918 
6 1 1 1.68794 15.5785 -15.18 
7 1 1 1.07341 16.2132 -15.5605 
8 1 1 0.667812 17.0455 -15.2351 
9 1 1 0.134925 17.6631 -15.7406 
10 1 1 -0.479704 17.5413 -15.054 
11 1 1 -0.477369 18.2143 -14.3593 
12 1 1 0.319915 18.5727 -13.9022 
13 1 1 0.492944 17.7051 -13.4943 
14 1 1 0.0684696 16.828 -13.5108 
15 1 1 0.818097 16.4417 -13.9467 
16 1 1 1.50904 16.5621 -13.2782 
17 1 1 2.43633 16.2855 -13.2743 
18 1 1 3.03305 16.5151 -12.537 
19 1 1 2.98174 16.1672 -11.6741 
20 1 1 3.18927 15.2388 -11.6042 
21 1 1 3.20007 14.9496 -12.5334 
22 1 1 2.40291 14.7005 -13.0512 
23 1 1 2.56358 14.3761 -13.9477 
24 1 1 3.30071 14.9993 -13.896 
25 1 1 3.86959 14.7375 -14.6498 
26 1 1 4.16369 14.1446 -15.3557 
27 1 1 3.83376 14.2386 -16.2572 
28 1 1 3.86618 14.4128 -17.2057 
29 1 1 2.97082 14.6878 -17.3907 
30 1 1 2.10254 14.3329 -17.2412 
ITEM: TIMESTEP
21000
ITEM: NUMBER OF ATOMS
30
ITEM: BOX BOUNDS pp pp pp
-5.7758099999999999e+00 5.7758099999999999e+00
-5.7758099999999999e+00 5.7758099999999999e+00
-5.7758099999999999e+00 5.7758099999999999e+00
ITEM: ATOMS id mol type xu yu zu 
1 1 1 1.94199 17.954 -12.4215 
2 1 1 1.73697 17.8016 -13.3698 
3 1 1 2.42381 17.9171 -14.04 
4 1 1 2.2531 17.2873 -14.7383 
5 1 1 2.17964 16.3426 -14.7133 
6 1 1 1.46872 15.8716 -15.0973 
7 1 1 0.813313 16.3995 -15.52 
8 1 1 0.879441 17.3453 -15.4189 
9 1 1 0.0134355 17.8049 -15.3865 
10 1 1 -0.832461 17.6911 -14.8618 
11 1 1 -0.83502 18.2281 -14.0541 
12 1 1 -0.0646496 18.7399 -13.7616 
13 1 1 0.41119 18.0895 -13.1462 
14 1 1 0.132683 17.1835 -13.4578 
15 1 1 0.896192 16.7047 -13.8342 
16 1 1 1.71627 16.2216 -13.6603 
17 1 1 2.43754 16.3887 -13.0392 
18 1 1 3.0481 16.7055 -12.3597 
19 1 1 3.17688 16.5184 -11.4343 
20 1 1 3.05832 15.6117 -11.7476 
21 1 1 3.48945 15.1643 -12.4611 
22 1 1 2.70181 14.935 -13.004 
23 1 1 2.84553 15.2353 -13.884 
24 1 1 3.60534 15.7198 -14.2093 
25 1 1 3.77891 14.9407 -14.7766 
26 1 1 3.24427 14.4264 -15.4017 
27 1 1 3.84904 14.1557 -16.0579 
28 1 1 3.65005 14.3768 -16.9736 
29 1 1 3.03776 14.2639 -17.7103 
30 1 1 2.20248 14.7588 -17.7074 
ITEM: TIMESTEP
22000
ITEM: NUMBER OF ATOMS
30
ITEM: BOX BOUNDS pp pp pp
-5.7758099999999999e+00 5.7758099999999999e+00
-5.7758099999999999e+00 5.7758099999999999e+00
-5.7758099999999999e+00 5.7758099999999999e+00
ITEM: ATOMS id mol type xu yu zu 
1 1 1 1.7062 18.1648 -12.7555 
2 1 1 1.35081 18.0409 -13.5977 
3 1 1 2.12076 17.6912 -14.0813 
4 1 1 2.02717 17.2133 -14.8868 
5 1 1 2.32653 16.2602 -14.7497 
6 1 1 1.76386 15.82 -15.4339 
7 1 1 0.9557 16.3547 -15.5385 
8 1 1 0.841316 17.3064 -15.7388 
9 1 1 0.390561 18.1191 -15.4938 
10 1 1 -0.442727 17.9036 -14.99 
11 1 1 -1.1751 18.3521 -14.5213 
12 1 1 -0.291899 18.6673 -14.2288 
13 1 1 -0.130041 18.0871 -13.4743 
14 1 1 0.239729 17.2362 -13.6751 
15 1 1 0.89793 16.655 -14.0606 
16 1 1 1.6097 16.3147 -13.5217 
17 1 1 2.37335 16.4288 -13.0067 
18 1 1 2.71769 16.8846 -12.2603 
19 1 1 3.44774 16.5117 -11.8362 
20 1 1 3.62903 15.5992 -11.6494 
21 1 1 3.90144 15.2325 -12.4847 
22 1 1 3.24234 14.7781 -12.9551 
23 1 1 2.91572 15.1556 -13.7353 
24 1 1 3.7528 15.3762 -14.1742 
25 1 1 3.77655 14.8518 -14.9734 
26 1 1 3.27808 13.9965 -15.1047 
27 1 1 3.55339 14.1195 -16.0123 
28 1 1 3.67476 14.3213 -16.8903 
29 1 1 3.0022 14.7575 -17.433 
30 1 1 2.09962 14.7214 -17.7312 
ITEM: TIMESTEP
23000
ITEM: NUMBER OF ATOMS
30
ITEM: BOX BOUNDS pp pp pp
-5.7758099999999999e+00 5.7758099999999999e+00
-5.7758099999999999e+00 5.7758099999999999e+00
-5.7758099999999999e+00 5.7758099999999999e+00
ITEM: ATOMS id mol type xu yu zu 
1 1 1 1.78855 18.2026 -12.4227 
2 1 1 1.65062 18.1082 -13.4219 
3 1 1 2.08882 18.0425 -14.3108 
4 1 1 2.20682 17.2911 -14.8716 
5 1 1 1.92357 16.5155 -14.4399 
6 1 1 1.3405 15.793 -14.7229 
7 1 1 0.650927 16.2104 -15.3246 
8 1 1 0.735002 17.1256 -15.2442 
9 1 1 0.897541 18.0518 -15.097 
10 1 1 0.0809001 18.4206 -14.6719 
11 1 1 -0.875393 18.3785 -14.3886 
12 1 1 -1.01894 18.502 -13.432 
13 1 1 -0.299221 18.277 -12.8474 
14 1 1 0.114964 17.4636 -12.8485 
15 1 1 0.677853 17.001 -13.519 
16 1 1 1.44702 16.7867 -12.9627 
17 1 1 2.2945 16.5118 -12.5311 
18 1 1 2.96739 16.9347 -11.9965 
19 1 1 3.45409 16.1467 -11.71 
20 1 1 3.79337 15.2291 -11.7411 
21 1 1 3.84689 15.1354 -12.6913 
22 1 1 3.19993 14.6311 -13.1736 
23 1 1 2.95508 15.0589 -14.003 
24 1 1 3.87855 15.2247 -14.3088 
25 1 1 4.08156 14.3705 -14.5922 
26 1 1 3.49665 14.5283 -15.4833 
27 1 1 2.80237 14.3624 -16.1235 
28 1 1 3.25587 14.3775 -16.9831 
29 1 1 2.53558 14.6307 -17.511 
30 1 1 1.798 14.7842 -18.1107 
ITEM: TIMESTEP
24000
ITEM: NUMBER OF ATOMS
30
ITEM: BOX BOUNDS pp pp pp
-5.7758099999999999e+00 5.7758099999999999e+00
-5.7758099999999999e+00 5.7758099999999999e+00
-5.7758099999999999e+00 5.7758099999999999e+00
ITEM: ATOMS id mol type xu yu zu 
1 1 1 1.97318 18.9576 -12.4557 
2 1 1 1.38451 18.6055 -13.1233 
3 1 1 1.80708 18.5422 -13.9386 
4 1 1 1.88659 17.8171 -14.5786 
5 1 1 2.06132 16.915 -14.4867 
6 1 1 1.54766 16.106 -14.3349 
7 1 1 0.864614 15.7742 -14.985 
8 1 1 0.475602 16.6124 -15.2528 