ITEM: TIMESTEP
0
ITEM: NUMBER OF ATOMS
30
ITEM: BOX BOUNDS pp pp pp
-5.7758099999999999e+00 5.7758099999999999e+00
-5.7758099999999999e+00 5.7758099999999999e+00
-5.7758099999999999e+00 5.7758099999999999e+00
ITEM: ATOMS id mol type x y z 
1 1 1 2.07407 -4.75135 -1.66402 
2 1 1 2.73772 -4.75126 -2.34536 
3 1 1 2.74342 -4.96086 -3.27678 
4 1 1 2.21163 -5.02809 -4.11556 
5 1 1 2.04013 -5.654 -4.86862 
6 1 1 1.53797 5.54775 -4.12565 
7 1 1 1.42269 5.47945 -3.19923 
8 1 1 0.463615 5.42782 -3.11945 
9 1 1 0.410109 -5.38008 -3.67578 
10 1 1 -0.162221 -4.78386 -3.16664 
11 1 1 -0.402537 -4.98479 -2.25946 
12 1 1 0.429022 -5.0965 -1.80813 
13 1 1 0.430507 5.53196 -2.00195 
14 1 1 1.32196 5.32672 -1.64371 
15 1 1 1.85344 5.72041 -0.962902 
16 1 1 2.78811 5.61946 -1.05424 
17 1 1 3.38403 5.05574 -1.54879 
18 1 1 3.92334 4.57386 -0.847161 
19 1 1 3.79402 3.66318 -0.66442 
20 1 1 2.98618 3.67813 -1.14481 
21 1 1 2.23024 3.94316 -1.68202 
22 1 1 2.11366 4.45164 -2.47721 
23 1 1 2.65105 3.72026 -2.79339 
24 1 1 3.08953 3.88977 -3.59515 
25 1 1 3.40316 3.93958 -4.4965 
26 1 1 3.0829 3.35074 -5.21467 
27 1 1 3.09515 3.1513 5.40122 
28 1 1 2.53881 2.37127 5.52171 
29 1 1 2.02948 1.65713 5.11166 
30 1 1 2.44651 1.65216 4.25624 
ITEM: TIMESTEP
1000
ITEM: NUMBER OF ATOMS
30
ITEM: BOX BOUNDS pp pp pp
-5.7758099999999999e+00 5.7758099999999999e+00
-5.7758099999999999e+00 5.7758099999999999e+00
-5.7758099999999999e+00 5.7758099999999999e+00
ITEM: ATOMS id mol type x y z 
1 1 1 2.38662 -5.04318 -2.08048 
2 1 1 2.6386 5.67743 -2.53924 
3 1 1 2.98691 -5.54797 -3.36822 
4 1 1 2.35827 -5.44934 -4.02981 
5 1 1 1.5626 -5.55969 -4.52442 
6 1 1 1.86418 5.18608 -4.01752 
7 1 1 1.45085 5.26988 -3.12865 
8 1 1 0.561814 5.03806 -3.2978 
9 1 1 0.311375 -5.6079 -3.56739 
10 1 1 -0.120105 -4.92427 -3.06446 
11 1 1 0.15002 -5.35809 -2.25603 
12 1 1 0.895927 -5.62157 -1.73459 
13 1 1 0.772703 4.96795 -1.82571 
14 1 1 1.15285 4.84292 -0.977134 
15 1 1 1.77661 5.51892 -0.615045 
16 1 1 2.72038 5.29882 -0.795283 
17 1 1 3.11197 4.789 -1.51448 
18 1 1 3.26135 4.40899 -0.638187 
19 1 1 3.182 3.52396 -0.966258 
20 1 1 2.29369 3.50221 -1.37616 
21 1 1 1.74337 3.9927 -1.95767 
22 1 1 2.36731 4.15227 -2.70947 
23 1 1 2.90361 3.39376 -2.92956 
24 1 1 3.70253 3.3137 -3.51648 
25 1 1 3.51056 3.64697 -4.40981 
26 1 1 3.05808 2.90625 -4.78349 
27 1 1 3.50095 2.62521 -5.53273 
28 1 1 2.90105 1.89517 -5.7144 
29 1 1 2.94588 1.61698 4.83755 
30 1 1 2.17396 1.80071 4.37427 
ITEM: TIMESTEP
2000
ITEM: NUMBER OF ATOMS
30
ITEM: BOX BOUNDS pp pp pp
-5.7758099999999999e+00 5.7758099999999999e+00
-5.7758099999999999e+00 5.7758099999999999e+00
-5.7758099999999999e+00 5.7758099999999999e+00
ITEM: ATOMS id mol type x y z 
1 1 1 2.66459 -5.41416 -2.00941 
2 1 1 2.36185 5.75084 -2.81968 
3 1 1 2.43075 -5.13199 -3.51552 
4 1 1 2.51938 -5.60978 -4.36641 
5 1 1 1.89452 5.4625 -4.89271 
6 1 1 1.32745 5.10759 -4.1573 
7 1 1 1.13826 5.39884 -3.26635 
8 1 1 0.230389 5.12477 -3.43194 
9 1 1 0.240084 -5.50646 -3.25737 
10 1 1 0.291045 -4.63914 -2.89173 
11 1 1 -0.255849 -4.78895 -2.12209 
12 1 1 0.0891626 -5.49742 -1.57547 
13 1 1 0.424425 5.22352 -1.86504 
14 1 1 0.821619 4.91806 -1.0436 
15 1 1 1.64062 5.41551 -0.905166 
16 1 1 2.52569 5.22199 -0.510736 
17 1 1 3.07799 4.99311 -1.26153 
18 1 1 3.34606 4.24501 -0.740224 
19 1 1 3.16808 3.61901 -1.49216 
20 1 1 2.18449 3.48723 -1.43884 
21 1 1 1.98708 4.19358 -2.0486 
22 1 1 2.57618 4.0832 -2.8037 
23 1 1 2.82196 3.19281 -2.95524 
24 1 1 3.64364 3.06122 -3.45663 
25 1 1 3.27963 3.55715 -4.15764 
26 1 1 2.57964 3.03251 -4.51678 
27 1 1 2.74856 2.25964 -5.07471 
28 1 1 2.32557 2.05141 5.59159 
29 1 1 2.50722 1.38198 4.89659 
30 1 1 2.19623 1.68559 3.98386 
ITEM: TIMESTEP
3000
ITEM: NUMBER OF ATOMS
30
ITEM: BOX BOUNDS pp pp pp
-5.7758099999999999e+00 5.7758099999999999e+00
-5.7758099999999999e+00 5.7758099999999999e+00
-5.7758099999999999e+00 5.7758099999999999e+00
ITEM: ATOMS id mol type x y z 
1 1 1 2.63902 -4.89498 -2.01747 
2 1 1 2.03454 -5.62457 -2.19742 
3 1 1 2.01427 -5.65917 -3.14298 
4 1 1 2.38386 -5.15024 -3.90031 
5 1 1 2.09665 -5.68447 -4.65768 
6 1 1 1.47934 5.15208 -4.54896 
7 1 1 1.25563 5.21606 -3.61347 
8 1 1 0.372703 5.03692 -3.3832 
9 1 1 -0.0829582 -5.73694 -3.49271 
10 1 1 -0.267684 -4.94066 -3.01793 
11 1 1 -0.730976 -5.23801 -2.21528 
12 1 1 -0.185079 5.7408 -1.72243 
13 1 1 0.682267 5.53651 -2.02137 
14 1 1 1.0204 5.38262 -1.1443 
15 1 1 1.70511 -5.5782 -0.809791 
16 1 1 2.52956 5.47648 -0.715351 
17 1 1 3.08025 5.08348 -1.4641 
18 1 1 3.70524 4.40158 -1.06844 
19 1 1 3.39293 3.58355 -1.43859 
20 1 1 2.49645 3.39551 -1.28543 
21 1 1 2.20928 4.21753 -1.70718 
22 1 1 2.46771 3.93732 -2.62394 
23 1 1 2.8992 3.12982 -2.90828 
24 1 1 3.6802 3.61651 -3.07507 
25 1 1 3.69797 3.62453 -4.03315 
26 1 1 3.11889 3.07215 -4.56833 
27 1 1 3.0527 2.34388 -5.21116 
28 1 1 3.28606 1.6461 -5.7603 
29 1 1 3.12909 1.4025 4.88042 
30 1 1 2.961 1.55646 3.92613 
ITEM: TIMESTEP
4000
ITEM: NUMBER OF ATOMS
30
ITEM: BOX BOUNDS pp pp pp
-5.7758099999999999e+00 5.7758099999999999e+00
-5.7758099999999999e+00 5.7758099999999999e+00
-5.7758099999999999e+00 5.7758099999999999e+00
ITEM: ATOMS id mol type x y z 
1 1 1 2.90125 -4.57563 -1.5698 
2 1 1 2.16436 -4.59165 -2.21632 
3 1 1 1.91421 -5.15313 -3.02866 
4 1 1 2.35226 -5.14849 -3.8993 
5 1 1 2.06527 -5.63505 -4.6911 
6 1 1 1.73919 4.99364 -4.7323 
7 1 1 1.35678 5.04406 -3.8183 
8 1 1 0.502713 5.45021 -3.6437 
9 1 1 -0.376247 -5.63841 -3.59475 
10 1 1 -0.33758 -5.12876 -2.82338 
11 1 1 -1.10584 -5.49696 -2.38822 
12 1 1 -0.263912 5.73195 -2.03601 
13 1 1 0.67624 -5.60393 -2.24891 
14 1 1 1.41739 -5.79538 -1.6363 
15 1 1 2.28133 5.69115 -1.27005 
16 1 1 2.98335 5.42455 -0.710128 
17 1 1 3.47106 4.72125 -1.11656 
18 1 1 3.90448 3.8755 -1.20559 
19 1 1 3.25907 3.18847 -1.10572 
20 1 1 2.38697 3.59274 -1.0919 
21 1 1 2.00725 4.24036 -1.69325 
22 1 1 2.2863 4.08312 -2.54449 
23 1 1 2.99338 3.41789 -2.46247 
24 1 1 3.61443 3.61896 -3.17609 
25 1 1 3.8742 3.08564 -3.98519 
26 1 1 3.02563 2.66351 -4.12775 
27 1 1 3.3042 2.34642 -4.97981 
28 1 1 3.1105 1.98648 5.69925 
29 1 1 3.3349 1.77101 4.805 
30 1 1 2.98641 1.70341 3.93176 
ITEM: TIMESTEP
5000
ITEM: NUMBER OF ATOMS
30
ITEM: BOX BOUNDS pp pp pp
-5.7758099999999999e+00 5.7758099999999999e+00
-5.7758099999999999e+00 5.7758099999999999e+00
-5.7758099999999999e+00 5.7758099999999999e+00
ITEM: ATOMS id mol type x y z 
1 1 1 2.10615 -4.59493 -1.87669 
2 1 1 1.45406 -4.98699 -2.46837 
3 1 1 1.9515 -5.48482 -3.11644 
4 1 1 2.53834 -5.1161 -3.72307 
5 1 1 2.48694 5.6899 -4.37243 
6 1 1 1.86192 5.02635 -4.69474 
7 1 1 1.25115 5.12666 -3.99963 
8 1 1 0.329769 5.36335 -3.90342 
9 1 1 -0.352364 5.68968 -3.37598 
10 1 1 -0.285773 -5.00388 -2.94968 
11 1 1 -0.52441 -5.11205 -2.03498 
12 1 1 -0.143897 5.58782 -1.71432 
13 1 1 0.480801 5.42069 -2.43136 
14 1 1 1.13265 4.9516 -1.88848 
15 1 1 1.94152 5.40002 -1.61905 
16 1 1 2.62543 5.75194 -1.04845 
17 1 1 3.38767 5.18128 -0.9775 
18 1 1 4.04392 4.45453 -0.885782 
19 1 1 3.63387 3.56314 -1.02931 
20 1 1 2.71182 3.75531 -0.839379 
21 1 1 2.12722 3.52956 -1.53552 
22 1 1 2.32533 3.82829 -2.45148 
23 1 1 3.26745 3.58794 -2.59702 
24 1 1 3.38212 3.97519 -3.3903 
25 1 1 3.80783 3.43042 -4.11465 
26 1 1 3.88908 2.68863 -4.68463 
27 1 1 3.27922 1.94147 -4.89443 
28 1 1 2.89695 2.3932 -5.65863 
29 1 1 3.50204 1.99263 5.19947 
30 1 1 3.35553 1.52861 4.37105 
ITEM: TIMESTEP
6000
ITEM: NUMBER OF ATOMS
30
ITEM: BOX BOUNDS pp pp pp
-5.7758099999999999e+00 5.7758099999999999e+00
-5.7758099999999999e+00 5.7758099999999999e+00
-5.7758099999999999e+00 5.7758099999999999e+00
ITEM: ATOMS id mol type x y z 
1 1 1 1.52892 -4.35056 -1.49741 
2 1 1 1.15094 -4.64838 -2.3434 
3 1 1 1.15125 -4.99948 -3.25187 
4 1 1 1.8156 -5.17861 -3.88766 
5 1 1 2.20358 5.48238 -3.97932 
6 1 1 1.6843 4.63126 -4.03559 
7 1 1 0.880098 5.16547 -3.90509 
8 1 1 0.263672 -5.71719 -4.31196 
9 1 1 -0.356285 5.65531 -3.58293 
10 1 1 -0.651453 -5.13428 -3.11613 
11 1 1 -0.619026 -5.04329 -2.13507 
12 1 1 -0.483591 5.59357 -1.9962 
13 1 1 0.460606 5.48038 -1.9435 
14 1 1 1.38387 5.2706 -2.12837 
15 1 1 1.80285 -5.72506 -1.4316 
16 1 1 2.31041 5.26115 -0.825582 
17 1 1 3.07189 4.70359 -0.800863 
18 1 1 3.65042 4.10613 -1.3433 
19 1 1 3.34167 3.28893 -0.97326 
20 1 1 2.41498 3.47912 -0.829858 
21 1 1 1.99083 3.79094 -1.64205 
22 1 1 2.55514 3.22556 -2.22992 
23 1 1 3.30479 3.50724 -2.76168 
24 1 1 3.38065 4.0633 -3.54389 
25 1 1 3.88186 3.82412 -4.29044 
26 1 1 3.73007 2.94669 -4.64077 
27 1 1 3.10415 2.34895 -5.05722 
28 1 1 2.89943 2.15845 5.55992 
29 1 1 3.14998 1.81017 4.67544 
30 1 1 4.10891 1.76638 4.48345 
ITEM: TIMESTEP
7000
ITEM: NUMBER OF ATOMS
30
ITEM: BOX BOUNDS pp pp pp
-5.7758099999999999e+00 5.7758099999999999e+00
-5.7758099999999999e+00 5.7758099999999999e+00
-5.7758099999999999e+00 5.7758099999999999e+00
ITEM: ATOMS id mol type x y z 
1 1 1 1.21977 -4.44419 -1.33626 
2 1 1 1.41297 -4.80556 -2.24533 
3 1 1 1.48584 -5.21972 -3.06091 
4 1 1 2.32236 -5.38486 -3.47958 
5 1 1 2.14245 5.2907 -3.81678 
6 1 1 1.38539 5.11834 -4.37974 
7 1 1 0.770509 4.68384 -3.8429 
8 1 1 -0.0059242 5.27942 -3.90885 
9 1 1 -0.849576 5.65312 -3.75329 
10 1 1 -0.660592 -4.97906 -3.4623 
11 1 1 -0.311042 -5.32141 -2.62956 
12 1 1 -0.297665 5.58307 -1.95112 
13 1 1 0.605637 5.30089 -2.1163 
14 1 1 1.53744 5.16129 -2.21834 
15 1 1 1.65101 5.60874 -1.40243 
16 1 1 2.53543 5.59724 -1.10845 
17 1 1 2.9552 4.7903 -0.854847 
18 1 1 3.45092 4.12341 -1.42353 
19 1 1 3.45093 3.30031 -0.923618 
20 1 1 2.51676 3.31297 -0.609021 
21 1 1 2.07609 3.49605 -1.41421 
22 1 1 2.25402 3.67324 -2.37075 
23 1 1 2.95897 4.1654 -2.80828 
24 1 1 3.57692 4.20349 -3.5374 
25 1 1 3.97003 3.94296 -4.38438 
26 1 1 3.57719 3.1609 -3.9942 
27 1 1 3.14555 2.56445 -4.56238 
28 1 1 3.14903 2.05825 -5.3843 
29 1 1 3.04352 1.73294 5.25755 
30 1 1 3.85883 1.29265 4.99706 
ITEM: TIMESTEP
8000
ITEM: NUMBER OF ATOMS
30
ITEM: BOX BOUNDS pp pp pp
-5.7758099999999999e+00 5.7758099999999999e+00
-5.7758099999999999e+00 5.7758099999999999e+00
-5.7758099999999999e+00 5.7758099999999999e+00
ITEM: ATOMS id mol type x y z 
1 1 1 1.0414 -4.33099 -1.47753 
2 1 1 1.58564 -4.78129 -2.18992 
3 1 1 1.36232 -5.04022 -3.06971 
4 1 1 1.99365 -5.67548 -3.35407 
5 1 1 1.95088 5.3926 -4.13509 
6 1 1 1.00363 5.47056 -4.43598 
7 1 1 0.759322 4.63355 -3.99274 
8 1 1 -0.00282204 5.01952 -3.50826 
9 1 1 -0.569269 5.58814 -4.00378 
10 1 1 -1.09197 -5.323 -3.53987 
11 1 1 -0.460453 -5.08195 -2.8393 
12 1 1 -0.552618 5.66717 -2.3429 
13 1 1 0.363067 5.70818 -2.07439 
14 1 1 1.16288 5.22044 -2.38756 
15 1 1 1.88386 5.50917 -1.83865 
16 1 1 2.68706 5.10565 -1.52097 
17 1 1 3.48902 4.94887 -0.989954 
18 1 1 3.9363 4.11135 -0.637188 
19 1 1 3.48529 3.55779 -0.00373165 
20 1 1 2.8861 3.09362 -0.561003 
21 1 1 2.85507 3.50963 -1.37664 
22 1 1 3.04851 3.80077 -2.2648 
23 1 1 2.53698 4.045 -3.0364 
24 1 1 3.16143 4.67727 -3.45505 
25 1 1 3.62187 4.17544 -4.09409 
26 1 1 3.53677 3.23055 -4.25796 
27 1 1 2.67787 2.8816 -4.71819 
28 1 1 2.88114 2.30507 -5.47639 
29 1 1 2.38829 1.54838 -5.7377 
30 1 1 3.08147 1.38038 5.09608 
ITEM: TIMESTEP
9000
ITEM: NUMBER OF ATOMS
30
ITEM: BOX BOUNDS pp pp pp
-5.7758099999999999e+00 5.7758099999999999e+00
-5.7758099999999999e+00 5.7758099999999999e+00
-5.7758099999999999e+00 5.7758099999999999e+00
ITEM: ATOMS id mol type x y z 
1 1 1 0.967076 -4.18702 -1.78624 
2 1 1 1.71477 -4.69711 -2.05955 
3 1 1 1.87818 -4.88876 -2.98157 
4 1 1 2.19914 -5.70982 -3.34112 
5 1 1 1.93298 5.59593 -4.22419 
6 1 1 1.32494 4.94443 -4.5557 
7 1 1 0.615136 4.42097 -4.12008 
8 1 1 0.145929 5.09928 -3.71437 
9 1 1 -0.333147 -5.74036 -4.14082 
10 1 1 -0.798015 -5.16087 -3.50467 
11 1 1 -0.249071 -5.22247 -2.70292 
12 1 1 0.324579 -5.55351 -2.00164 
13 1 1 0.532807 5.10439 -2.33743 
14 1 1 1.45949 5.04808 -2.1446 
15 1 1 2.31936 5.4593 -2.17612 
16 1 1 2.99057 5.43113 -1.46181 
17 1 1 3.21859 5.04027 -0.610613 
18 1 1 4.0553 4.5408 -0.704598 
19 1 1 3.78702 3.62801 -0.733128 
20 1 1 2.92428 3.26554 -0.462789 
21 1 1 2.38756 3.52653 -1.20772 
22 1 1 2.76464 3.93844 -1.98493 
23 1 1 2.73697 4.22044 -2.8925 
24 1 1 3.45409 4.40918 -3.53085 
25 1 1 3.48838 4.06317 -4.43162 
26 1 1 3.56076 3.13296 -4.30415 
27 1 1 3.28995 2.30482 -4.67504 
28 1 1 2.64075 2.48579 -5.37403 
29 1 1 2.24805 2.08436 5.45429 
30 1 1 3.03501 1.78212 4.9111 
ITEM: TIMESTEP
10000
ITEM: NUMBER OF ATOMS
30
ITEM: BOX BOUNDS pp pp pp
-5.7758099999999999e+00 5.7758099999999999e+00
-5.7758099999999999e+00 5.7758099999999999e+00
-5.7758099999999999e+00 5.7758099999999999e+00
ITEM: ATOMS id mol type x y z 
1 1 1 1.41412 -4.42453 -1.14207 
2 1 1 1.94597 -4.70677 -1.8902 
3 1 1 1.96651 -4.87596 -2.81615 
4 1 1 1.82628 -5.63693 -3.40485 
5 1 1 2.17657 5.18908 -3.94621 
6 1 1 1.54462 4.75064 -4.48518 
7 1 1 0.670397 4.74455 -4.06977 
8 1 1 -0.0487884 5.36701 -4.11869 
9 1 1 -0.835746 5.58781 -3.61465 
10 1 1 -0.745278 -5.12356 -3.21476 
11 1 1 -0.781022 -5.64977 -2.39584 
12 1 1 0.127859 -5.44794 -2.19225 
13 1 1 0.763643 5.45967 -2.5015 
14 1 1 1.55356 5.1125 -2.044 
15 1 1 2.39324 5.44377 -2.25417 
16 1 1 2.67387 5.80779 -1.42271 
17 1 1 3.39161 5.35613 -0.942532 
18 1 1 3.93905 4.58083 -0.747776 
19 1 1 4.10168 3.65583 -0.790257 
20 1 1 3.23613 3.24143 -0.605335 
21 1 1 2.79358 3.189 -1.50871 
22 1 1 2.9951 4.01968 -1.95146 
23 1 1 3.29402 4.07718 -2.82105 
24 1 1 3.86308 4.55707 -3.40855 
25 1 1 3.89746 3.90056 -4.16993 
26 1 1 3.32086 3.14143 -3.97554 
27 1 1 2.75065 2.37729 -4.20311 
28 1 1 2.9852 2.26384 -5.13773 
29 1 1 2.36476 2.09065 5.7145 
30 1 1 2.8285 1.30629 5.4086 
ITEM: TIMESTEP
11000
ITEM: NUMBER OF ATOMS
30
ITEM: BOX BOUNDS pp pp pp
-5.7758099999999999e+00 5.7758099999999999e+00
-5.7758099999999999e+00 5.7758099999999999e+00
-5.7758099999999999e+00 5.7758099999999999e+00
ITEM: ATOMS id mol type x y z 
1 1 1 1.26511 -4.70018 -1.05542 
2 1 1 1.35876 -4.58787 -1.9995 
3 1 1 1.83342 -4.71292 -2.86281 
4 1 1 2.06301 -5.24744 -3.62005 
5 1 1 1.88543 5.40041 -3.7331 
6 1 1 1.47182 4.50472 -3.80622 
7 1 1 0.526879 4.39664 -3.96622 
8 1 1 -0.0644952 5.15716 -3.95617 
9 1 1 -0.694153 -5.68257 -3.93332 
10 1 1 -0.469419 -4.93792 -3.38678 
11 1 1 -0.688335 -5.17768 -2.46695 
12 1 1 -0.088561 5.61836 -2.35615 
13 1 1 0.860533 5.42474 -2.54537 
14 1 1 1.59705 5.01382 -2.08706 
15 1 1 2.42586 5.48703 -2.39087 
16 1 1 2.90511 -5.57971 -1.73753 
17 1 1 3.45255 5.66717 -1.07591 
18 1 1 3.94324 4.83317 -1.0842 
19 1 1 3.81362 4.22279 -0.385214 
20 1 1 3.6888 3.40249 -0.829202 
21 1 1 2.86706 3.60663 -1.24218 
22 1 1 3.18559 3.75096 -2.13839 
23 1 1 3.16045 4.498 -2.7403 
24 1 1 3.4277 4.85733 -3.56091 
25 1 1 4.10106 4.22505 -3.81418 
26 1 1 3.84317 3.35481 -3.50608 
27 1 1 3.17698 2.67368 -3.67719 
28 1 1 2.74493 2.80156 -4.50027 
29 1 1 2.56433 2.64267 -5.43184 
30 1 1 2.81257 1.88678 5.61321 
ITEM: TIMESTEP
12000
ITEM: NUMBER OF ATOMS
30
ITEM: BOX BOUNDS pp pp pp
-5.7758099999999999e+00 5.7758099999999999e+00
-5.7758099999999999e+00 5.7758099999999999e+00
-5.7758099999999999e+00 5.7758099999999999e+00
ITEM: ATOMS id mol type x y z 
1 1 1 1.15326 -5.26441 -0.95792 
2 1 1 1.38296 -4.99596 -1.84388 
3 1 1 1.54795 -4.83316 -2.76044 
4 1 1 1.88886 -5.61522 -3.19043 
5 1 1 1.90782 5.04294 -3.65391 
6 1 1 1.10685 4.5065 -3.59407 
7 1 1 0.11022 4.52565 -3.66184 
8 1 1 -0.00680579 5.37143 -4.05417 
9 1 1 -0.893981 -5.70214 -4.04559 
10 1 1 -0.441813 -4.91711 -3.7093 
11 1 1 -0.61288 -5.19068 -2.81703 
12 1 1 0.0103614 5.63212 -2.61534 
13 1 1 0.504448 4.92129 -2.23703 
14 1 1 1.4017 5.05267 -1.93729 
15 1 1 2.29292 5.28542 -1.71705 
16 1 1 2.82771 -5.71577 -1.09558 
17 1 1 3.63031 5.65272 -0.682667 
18 1 1 3.63401 4.84915 -1.30091 
19 1 1 3.92867 4.45465 -0.505501 
20 1 1 3.78986 3.49675 -0.383939 
21 1 1 3.53393 3.17123 -1.23345 
22 1 1 2.99677 3.369 -2.02833 
23 1 1 2.71112 4.08284 -2.59695 
24 1 1 3.58925 4.39981 -2.79451 
25 1 1 4.39527 4.27998 -3.20517 
26 1 1 3.84074 3.55245 -3.51401 
27 1 1 3.63086 2.64417 -3.62938 
28 1 1 3.00046 2.37878 -4.32004 
29 1 1 2.83847 2.91045 -5.12073 
30 1 1 3.25231 2.31875 5.73014 
ITEM: TIMESTEP
13000
ITEM: NUMBER OF ATOMS
30
ITEM: BOX BOUNDS pp pp pp
-5.7758099999999999e+00 5.7758099999999999e+00
-5.7758099999999999e+00 5.7758099999999999e+00
-5.7758099999999999e+00 5.7758099999999999e+00
ITEM: ATOMS id mol type x y z 
1 1 1 1.36025 -4.92779 -1.41871 
2 1 1 1.94034 -4.79126 -2.22188 
3 1 1 1.60066 -5.07327 -3.09103 
4 1 1 2.26398 -5.61021 -3.50679 
5 1 1 2.03495 5.06177 -3.80383 
6 1 1 1.35411 4.36161 -3.88509 
7 1 1 0.552505 4.83637 -3.64143 
8 1 1 0.181925 5.33331 -4.39894 
9 1 1 -0.519168 -5.65117 -4.18231 
10 1 1 -0.937511 -4.92157 -3.8016 
11 1 1 -1.14695 -5.25506 -2.92994 
12 1 1 -0.294739 -5.6085 -2.65101 
13 1 1 0.600284 5.70698 -2.22525 
14 1 1 1.39839 5.22158 -2.25965 
15 1 1 2.27852 5.44478 -1.8922 
16 1 1 2.8348 -5.66892 -1.22491 
17 1 1 3.79138 -5.75425 -1.12988 
18 1 1 4.22931 4.90277 -1.06878 
19 1 1 4.44738 4.34274 -0.319405 
20 1 1 4.17451 3.68186 -0.966902 
21 1 1 3.43998 3.08544 -1.10745 
22 1 1 3.19073 3.30505 -2.03351 
23 1 1 2.651 4.04708 -2.39044 
24 1 1 3.12788 4.73925 -2.83747 
25 1 1 3.92481 4.31695 -3.18177 
26 1 1 4.09213 3.54988 -3.69041 
27 1 1 3.17302 3.22822 -3.70162 
28 1 1 2.86521 3.05622 -4.62154 
29 1 1 3.38619 2.82771 -5.42517 
30 1 1 3.55274 2.23871 5.38171 
ITEM: TIMESTEP
14000
ITEM: NUMBER OF ATOMS
30
ITEM: BOX BOUNDS pp pp pp
-5.7758099999999999e+00 5.7758099999999999e+00
-5.7758099999999999e+00 5.7758099999999999e+00
-5.7758099999999999e+00 5.7758099999999999e+00
ITEM: ATOMS id mol type x y z 
1 1 1 1.7171 -4.71454 -1.64014 
2 1 1 2.15946 -4.60816 -2.48637 
3 1 1 1.92915 -5.23957 -3.13828 
4 1 1 2.47914 -5.77999 -3.6322 
5 1 1 2.00994 4.9936 -3.88404 
6 1 1 1.3512 4.31594 -3.92856 
7 1 1 0.381382 4.47556 -3.85979 
8 1 1 0.200132 5.31884 -4.35596 
9 1 1 -0.152642 -5.34336 -4.38131 
10 1 1 -0.497465 -4.80406 -3.66083 
11 1 1 -0.584094 -5.41454 -2.93361 
12 1 1 0.380658 -5.22508 -2.77702 
13 1 1 0.690356 5.6975 -2.09421 
14 1 1 1.2727 4.94046 -2.0105 
15 1 1 2.1372 5.32784 -1.88602 
16 1 1 2.4209 -5.59057 -1.20037 
17 1 1 3.2328 5.5014 -1.00822 
18 1 1 3.88768 4.82745 -1.2381 
19 1 1 4.18244 4.00286 -0.819383 
20 1 1 3.72634 3.32592 -1.26473 
21 1 1 2.81574 3.21453 -1.48557 
22 1 1 2.86229 2.88489 -2.38321 
23 1 1 2.76349 3.70519 -2.88777 
24 1 1 3.19338 4.56546 -3.11753 
25 1 1 4.13432 4.67818 -3.23495 
26 1 1 4.37549 3.77313 -3.42725 
27 1 1 3.7285 3.2707 -3.91602 
28 1 1 3.05008 3.38418 -4.58682 
29 1 1 2.9383 3.25961 -5.52933 
30 1 1 2.6602 3.02764 5.09976 
ITEM: TIMESTEP
15000
ITEM: NUMBER OF ATOMS
30
ITEM: BOX BOUNDS pp pp pp
-5.7758099999999999e+00 5.7758099999999999e+00
-5.7758099999999999e+00 5.7758099999999999e+00
-5.7758099999999999e+00 5.7758099999999999e+00
ITEM: ATOMS id mol type x y z 
1 1 1 1.54384 -4.45834 -1.603 
2 1 1 1.85267 -4.60792 -2.50087 
3 1 1 1.93145 -5.19873 -3.21577 
4 1 1 2.09502 5.66562 -3.84146 
5 1 1 1.85958 4.71958 -3.97719 
6 1 1 1.21395 4.02295 -3.59123 
7 1 1 0.269452 4.31942 -3.71613 
8 1 1 0.072841 5.18393 -4.08174 
9 1 1 0.337585 -5.46705 -4.127 
10 1 1 -0.0992876 -4.67079 -3.83023 
11 1 1 -0.766062 -4.8874 -3.18573 
12 1 1 -0.346427 -5.55452 -2.62966 
13 1 1 0.501719 5.54016 -2.6745 
14 1 1 1.32239 5.15982 -2.66159 
15 1 1 2.26767 5.17927 -2.29855 
16 1 1 2.05682 5.71105 -1.48041 
17 1 1 2.90897 -5.65211 -1.22542 
18 1 1 3.43545 5.11914 -1.43028 
19 1 1 3.85237 4.32569 -1.09263 
20 1 1 3.51179 3.53188 -1.48218 
21 1 1 2.56492 3.45097 -1.40798 
22 1 1 2.66872 2.9294 -2.18803 
23 1 1 2.82775 3.46555 -2.97968 
24 1 1 3.34051 4.28254 -2.6849 
25 1 1 4.32371 4.25953 -2.88878 
26 1 1 4.53406 3.38537 -3.39125 
27 1 1 4.00087 3.37681 -4.16491 
28 1 1 3.2907 2.75832 -4.36743 
29 1 1 2.88971 2.75724 -5.24655 
30 1 1 2.12592 3.07001 -5.70856 
ITEM: TIMESTEP
16000
ITEM: NUMBER OF ATOMS
30
ITEM: BOX BOUNDS pp pp pp
-5.7758099999999999e+00 5.7758099999999999e+00
-5.7758099999999999e+00 5.7758099999999999e+00
-5.7758099999999999e+00 5.7758099999999999e+00
ITEM: ATOMS id mol type x y z 
1 1 1 1.83065 -4.46367 -1.74484 
2 1 1 1.47199 -4.84386 -2.54352 
3 1 1 1.31083 -5.39067 -3.3942 
4 1 1 1.5999 5.26652 -3.66867 
5 1 1 1.71667 4.39466 -4.04904 
6 1 1 0.813798 3.9592 -4.24457 
7 1 1 0.0271797 4.32421 -3.76066 
8 1 1 -0.032121 5.26692 -3.70933 
9 1 1 0.0319458 -5.6224 -4.41778 
10 1 1 -0.0371978 -4.7953 -3.97136 
11 1 1 -0.503683 -5.01297 -3.14918 
12 1 1 -0.448877 -5.54855 -2.37456 
13 1 1 0.441179 5.67767 -2.2037 
14 1 1 0.920089 4.91269 -2.50967 
15 1 1 1.81385 4.77305 -2.28913 
16 1 1 1.79309 5.48643 -1.61142 
17 1 1 2.74301 5.54736 -1.3515 
18 1 1 3.0752 5.3357 -0.467676 
19 1 1 3.66794 4.60894 -0.252639 
20 1 1 3.86287 3.89823 -0.838597 
21 1 1 3.15217 3.52518 -1.37484 
22 1 1 2.809 2.84609 -1.97483 
23 1 1 2.8288 3.67327 -2.56194 
24 1 1 3.77224 3.56753 -2.66702 
25 1 1 4.65159 3.21635 -2.76314 
26 1 1 4.26228 2.72806 -3.48509 
27 1 1 3.90934 2.39984 -4.32574 
28 1 1 3.12927 2.92917 -4.57504 
29 1 1 2.45732 3.0207 -5.25636 
30 1 1 1.72852 3.14315 5.68595 
ITEM: TIMESTEP
17000
ITEM: NUMBER OF ATOMS
30
ITEM: BOX BOUNDS pp pp pp
-5.7758099999999999e+00 5.7758099999999999e+00
-5.7758099999999999e+00 5.7758099999999999e+00
-5.7758099999999999e+00 5.7758099999999999e+00
ITEM: ATOMS id mol type x y z 
1 1 1 1.86207 -4.94961 -1.47649 
2 1 1 2.01573 -5.23184 -2.42076 
3 1 1 1.40536 -5.31214 -3.11757 
4 1 1 1.72025 5.40191 -3.50784 
5 1 1 1.82739 4.53632 -3.88908 
6 1 1 1.03368 4.2855 -4.3406 
7 1 1 0.292055 4.28552 -3.70634 
8 1 1 0.193822 5.20665 -3.59147 
9 1 1 0.484904 -5.60254 -4.05377 
10 1 1 0.0662594 -4.82962 -3.63493 
11 1 1 -0.490422 -4.86858 -2.87454 
12 1 1 -0.600511 -5.51567 -2.19914 
13 1 1 0.335054 -5.71987 -2.05857 
14 1 1 0.784433 4.99281 -2.28896 
15 1 1 1.60961 4.70024 -1.98091 
16 1 1 2.21055 5.11771 -1.37024 
17 1 1 3.07189 5.50807 -1.23546 
18 1 1 3.3148 5.13241 -0.382752 
19 1 1 4.12609 4.66125 -0.259656 
20 1 1 3.61686 3.85482 -0.230284 
21 1 1 2.86391 3.2653 -0.47241 
22 1 1 2.5681 3.34182 -1.40172 
23 1 1 2.92834 3.50592 -2.25562 
24 1 1 3.89134 3.69219 -2.43783 
25 1 1 4.31744 3.44297 -3.266 
26 1 1 4.40819 2.58885 -3.71303 
27 1 1 3.78761 2.8845 -4.33372 
28 1 1 2.8528 2.81381 -4.23087 
29 1 1 2.63685 3.37464 -4.9993 
30 1 1 1.85327 2.90399 -5.36038 
ITEM: TIMESTEP
18000
ITEM: NUMBER OF ATOMS
30
ITEM: BOX BOUNDS pp pp pp
-5.7758099999999999e+00 5.7758099999999999e+00
-5.7758099999999999e+00 5.7758099999999999e+00
-5.7758099999999999e+00 5.7758099999999999e+00
ITEM: ATOMS id mol type x y z 
1 1 1 1.95296 -4.84258 -1.43203 
2 1 1 2.01105 -5.22057 -2.33285 
3 1 1 1.60317 -5.46957 -3.19305 
4 1 1 2.12744 5.41315 -3.64043 
5 1 1 2.03228 4.46722 -3.62257 
6 1 1 1.26702 3.93888 -3.81424 
7 1 1 0.893805 4.53178 -4.48597 
8 1 1 0.621548 5.23762 -3.91092 
9 1 1 0.5197 -5.50354 -4.35756 
10 1 1 -0.370139 -5.11965 -4.09007 
11 1 1 -0.399408 -4.61098 -3.23703 
12 1 1 0.0568329 -5.24936 -2.71283 
13 1 1 0.676839 -5.49337 -2.04203 
14 1 1 0.882883 5.15344 -2.21344 
15 1 1 1.43559 4.54265 -1.74959 
16 1 1 2.11463 5.14861 -1.46235 
17 1 1 2.98863 4.9517 -1.20755 
18 1 1 3.59984 5.45109 -0.679033 
19 1 1 3.71733 4.84597 0.129559 
20 1 1 3.85315 3.88075 0.155048 
21 1 1 3.51632 3.63478 -0.752338 
22 1 1 2.62139 3.60767 -1.1635 
23 1 1 2.79985 3.44009 -2.07699 
24 1 1 3.67966 3.21988 -2.41169 
25 1 1 3.85277 3.5721 -3.27693 
26 1 1 4.13966 2.89053 -3.89121 
27 1 1 3.64481 2.90502 -4.77165 
28 1 1 2.77269 3.17905 -5.18855 
29 1 1 1.90737 3.47714 -5.43521 
30 1 1 1.38697 2.68655 -5.543 
ITEM: TIMESTEP
19000
ITEM: NUMBER OF ATOMS
30
ITEM: BOX BOUNDS pp pp pp
-5.7758099999999999e+00 5.7758099999999999e+00
-5.7758099999999999e+00 5.7758099999999999e+00
-5.7758099999999999e+00 5.7758099999999999e+00
ITEM: ATOMS id mol type x y z 
1 1 1 2.18601 -5.31971 -0.867774 
2 1 1 2.21908 -5.32218 -1.86721 
3 1 1 2.06234 -5.39267 -2.85781 
4 1 1 1.97519 5.41649 -3.42906 
5 1 1 1.57713 4.65795 -2.96026 
6 1 1 1.32645 3.98267 -3.57281 
7 1 1 1.06677 4.6723 -4.19036 
8 1 1 0.563316 5.36504 -3.82972 
9 1 1 0.2087 -5.36202 -4.06899 
10 1 1 -0.7334 -5.21523 -3.91279 
11 1 1 -0.275269 -4.62556 -3.34311 
12 1 1 0.0711485 -5.2095 -2.57802 
13 1 1 0.614378 -5.51346 -1.87388 
14 1 1 0.247714 5.18789 -1.65287 
15 1 1 1.22773 5.10015 -2.05198 
16 1 1 1.93786 4.78371 -1.52376 
17 1 1 2.86985 4.9125 -1.32433 
18 1 1 3.52641 5.3044 -0.763531 
19 1 1 3.21805 4.87267 0.0783907 
20 1 1 3.48817 3.93228 0.0615394 
21 1 1 3.47214 3.60206 -0.816551 
22 1 1 2.52828 3.38403 -0.936959 
23 1 1 2.67115 2.65323 -1.51858 
24 1 1 3.29258 2.72145 -2.24668 
25 1 1 3.60603 3.55102 -2.82401 
26 1 1 3.95864 2.9763 -3.51537 
27 1 1 3.56573 2.87727 -4.42406 
28 1 1 2.9932 2.82483 -5.20324 
29 1 1 2.25696 2.7164 5.76495 
30 1 1 1.49349 3.28702 5.81316 
ITEM: TIMESTEP
20000
ITEM: NUMBER OF ATOMS
30
ITEM: BOX BOUNDS pp pp pp
-5.7758099999999999e+00 5.7758099999999999e+00
-5.7758099999999999e+00 5.7758099999999999e+00
-5.7758099999999999e+00 5.7758099999999999e+00
ITEM: ATOMS id mol type x y z 
1 1 1 2.3793 -5.31248 -0.864818 
2 1 1 2.12113 -5.16696 -1.77865 
3 1 1 2.0021 -5.35841 -2.71974 
4 1 1 2.1743 5.3172 -3.04227 
5 1 1 2.19659 4.3718 -2.8402 
6 1 1 1.68794 4.02688 -3.62836 
7 1 1 1.07341 4.66156 -4.00892 
8 1 1 0.667812 5.49386 -3.68347 
9 1 1 0.134925 -5.44009 -4.18896 
10 1 1 -0.479704 -5.56194 -3.5024 
11 1 1 -0.477369 -4.88898 -2.80766 
12 1 1 0.319915 -4.53055 -2.35063 
13 1 1 0.492944 -5.39817 -1.94269 
14 1 1 0.0684696 5.27636 -1.95922 
15 1 1 0.818097 4.89003 -2.39506 
16 1 1 1.50904 5.01044 -1.7266 
17 1 1 2.43633 4.73393 -1.72264 
18 1 1 3.03305 4.96345 -0.985412 
19 1 1 2.98174 4.61558 -0.122479 
20 1 1 3.18927 3.6872 -0.0525507 
21 1 1 3.20007 3.39801 -0.981784 
22 1 1 2.40291 3.14885 -1.49963 
23 1 1 2.56358 2.82449 -2.39606 
24 1 1 3.30071 3.4477 -2.34436 
25 1 1 3.86959 3.18587 -3.09817 
26 1 1 4.16369 2.59297 -3.80403 
27 1 1 3.83376 2.68695 -4.70561 
28 1 1 3.86618 2.86117 -5.65407 
29 1 1 2.97082 3.13616 5.71252 
30 1 1 2.10254 2.78132 -5.6896 
ITEM: TIMESTEP
21000
ITEM: NUMBER OF ATOMS
30
ITEM: BOX BOUNDS pp pp pp
-5.7758099999999999e+00 5.7758099999999999e+00
-5.7758099999999999e+00 5.7758099999999999e+00
-5.7758099999999999e+00 5.7758099999999999e+00
ITEM: ATOMS id mol type x y z 
1 1 1 1.94199 -5.14923 -0.8699 
2 1 1 1.73697 -5.30162 -1.81817 
3 1 1 2.42381 -5.18611 -2.48833 
4 1 1 2.2531 5.73568 -3.18669 
5 1 1 2.17964 4.79102 -3.16172 
6 1 1 1.46872 4.31998 -3.54566 
7 1 1 0.813313 4.84791 -3.96838 
8 1 1 0.879441 -5.75796 -3.86724 
9 1 1 0.0134355 -5.29837 -3.8349 
10 1 1 -0.832461 -5.41214 -3.31015 
11 1 1 -0.83502 -4.87513 -2.50243 
12 1 1 -0.0646496 -4.36339 -2.21 
13 1 1 0.41119 -5.01378 -1.5946 
14 1 1 0.132683 5.63191 -1.90621 
15 1 1 0.896192 5.15308 -2.28257 
16 1 1 1.71627 4.67002 -2.10865 
17 1 1 2.43754 4.83705 -1.48763 
18 1 1 3.0481 5.15391 -0.808032 
19 1 1 3.17688 4.9668 0.117346 
20 1 1 3.05832 4.06012 -0.195985 
21 1 1 3.48945 3.61264 -0.90953 
22 1 1 2.70181 3.3834 -1.45235 
23 1 1 2.84553 3.68367 -2.33235 
24 1 1 3.60534 4.16822 -2.65767 
25 1 1 3.77891 3.38905 -3.22493 
26 1 1 3.24427 2.87477 -3.85006 
27 1 1 3.84904 2.60406 -4.5063 
28 1 1 3.65005 2.82522 -5.42201 
29 1 1 3.03776 2.71224 5.39295 
30 1 1 2.20248 3.20722 5.39588 
ITEM: TIMESTEP
22000
ITEM: NUMBER OF ATOMS
30
ITEM: BOX BOUNDS pp pp pp
-5.7758099999999999e+00 5.7758099999999999e+00
-5.7758099999999999e+00 5.7758099999999999e+00
-5.7758099999999999e+00 5.7758099999999999e+00
ITEM: ATOMS id mol type x y z 
1 1 1 1.7062 -4.93842 -1.20385 
2 1 1 1.35081 -5.06239 -2.04609 
3 1 1 2.12076 -5.41206 -2.52971 
4 1 1 2.02717 5.66164 -3.33515 
5 1 1 2.32653 4.70861 -3.1981 
6 1 1 1.76386 4.26837 -3.88227 
7 1 1 0.9557 4.80308 -3.98683 
8 1 1 0.841316 5.75473 -4.18719 
9 1 1 0.390561 -4.98417 -3.94215 
10 1 1 -0.442727 -5.19969 -3.43843 
11 1 1 -1.1751 -4.75113 -2.96972 
12 1 1 -0.291899 -4.43595 -2.67722 
13 1 1 -0.130041 -5.01613 -1.92266 
14 1 1 0.239729 5.68456 -2.12347 
15 1 1 0.89793 5.10334 -2.509 
16 1 1 1.6097 4.76311 -1.97005 
17 1 1 2.37335 4.8772 -1.45504 
18 1 1 2.71769 5.33295 -0.708728 
19 1 1 3.44774 4.96004 -0.284597 
20 1 1 3.62903 4.04758 -0.0977806 
21 1 1 3.90144 3.68087 -0.93308 
22 1 1 3.24234 3.22653 -1.40347 
23 1 1 2.91572 3.60399 -2.18367 
24 1 1 3.7528 3.8246 -2.62253 
25 1 1 3.77655 3.30017 -3.42181 
26 1 1 3.27808 2.44488 -3.55304 
27 1 1 3.55339 2.56791 -4.46064 
28 1 1 3.67476 2.76968 -5.33873 
29 1 1 3.0022 3.20588 5.67027 
30 1 1 2.09962 3.16978 5.37202 
ITEM: TIMESTEP
23000
ITEM: NUMBER OF ATOMS
30
ITEM: BOX BOUNDS pp pp pp
-5.7758099999999999e+00 5.7758099999999999e+00
-5.7758099999999999e+00 5.7758099999999999e+00
-5.7758099999999999e+00 5.7758099999999999e+00
ITEM: ATOMS id mol type x y z 
1 1 1 1.78855 -4.90067 -0.871032 
2 1 1 1.65062 -4.99506 -1.87033 
3 1 1 2.08882 -5.06073 -2.75915 
4 1 1 2.20682 5.73944 -3.32001 
5 1 1 1.92357 4.96388 -2.8883 
6 1 1 1.3405 4.24135 -3.17127 
7 1 1 0.650927 4.65877 -3.77294 
8 1 1 0.735002 5.57396 -3.69257 
9 1 1 0.897541 -5.05146 -3.54538 
10 1 1 0.0809001 -4.68261 -3.12031 
11 1 1 -0.875393 -4.7247 -2.83701 
12 1 1 -1.01894 -4.60122 -1.88043 
13 1 1 -0.299221 -4.82627 -1.29581 
14 1 1 0.114964 -5.63961 -1.29686 
15 1 1 0.677853 5.44942 -1.96738 
16 1 1 1.44702 5.23512 -1.41112 
17 1 1 2.2945 4.96023 -0.979457 
18 1 1 2.96739 5.38313 -0.444896 
19 1 1 3.45409 4.59507 -0.15835 
20 1 1 3.79337 3.6775 -0.189488 
21 1 1 3.84689 3.58378 -1.13968 
22 1 1 3.19993 3.07951 -1.62195 
23 1 1 2.95508 3.50723 -2.45141 
24 1 1 3.87855 3.67308 -2.75716 
25 1 1 4.08156 2.81888 -3.04061 
26 1 1 3.49665 2.97673 -3.93171 
27 1 1 2.80237 2.81075 -4.57186 
28 1 1 3.25587 2.82584 -5.43144 
29 1 1 2.53558 3.07908 5.5922 
30 1 1 1.798 3.23262 4.99253 
ITEM: TIMESTEP
24000
ITEM: NUMBER OF ATOMS
30
ITEM: BOX BOUNDS pp pp pp
-5.7758099999999999e+00 5.7758099999999999e+00
-5.7758099999999999e+00 5.7758099999999999e+00
-5.7758099999999999e+00 5.7758099999999999e+00
ITEM: ATOMS id mol type x y z 
1 1 1 1.97318 -4.14564 -0.904129 
2 1 1 1.38451 -4.49777 -1.57164 
3 1 1 1.80708 -4.56107 -2.38697 