LAMMPS data file via write_data, version 31 Mar 2017, timestep = 5000000

2101 atoms
5 atom types
1740 bonds
1 bond types

-7.8750000000000000e+00 7.8750000000000000e+00 xlo xhi
-9.0932499999999994e+00 9.0932499999999994e+00 ylo yhi
-3.0000000000000000e+00 4.0000000000000000e+01 zlo zhi

Masses

1 1
2 1
3 1
4 1
5 1

Pair Coeffs # lj/expand

1 1 1 0
2 1 1 0
3 1 1 0
4 0 0 0
5 1 1 3

Bond Coeffs # fene

1 30 1.5 1 1

Atoms # bond

1801 61 4 -7.8750000000000000e+00 -9.0932499999999994e+00 0.0000000000000000e+00 0 0 0
1802 62 4 -7.8750000000000000e+00 -7.2746000000000004e+00 0.0000000000000000e+00 0 0 0
1811 71 4 -7.3499999999999996e+00 -8.1839300000000001e+00 0.0000000000000000e+00 0 0 0
1821 81 4 -6.8250000000000002e+00 -9.0932499999999994e+00 0.0000000000000000e+00 0 0 0
1822 82 4 -6.8250000000000002e+00 -7.2746000000000004e+00 0.0000000000000000e+00 0 0 0
1831 91 4 -6.2999999999999998e+00 -8.1839300000000001e+00 0.0000000000000000e+00 0 0 0
1841 101 4 -5.7750000000000004e+00 -9.0932499999999994e+00 0.0000000000000000e+00 0 0 0
1842 102 4 -5.7750000000000004e+00 -7.2746000000000004e+00 0.0000000000000000e+00 0 0 0
33 2 2 -6.8159091961038367e+00 -8.9378323619581472e+00 1.2309482763173909e+00 0 0 0
34 2 2 -7.5365827109545309e+00 -8.1804371214963751e+00 1.0519282860393713e+00 0 0 0
1851 111 4 -5.2500000000000000e+00 -8.1839300000000001e+00 0.0000000000000000e+00 0 0 0
1861 121 4 -4.7249999999999996e+00 -9.0932499999999994e+00 0.0000000000000000e+00 0 0 0
1862 122 4 -4.7249999999999996e+00 -7.2746000000000004e+00 0.0000000000000000e+00 0 0 0
1871 131 4 -4.2000000000000002e+00 -8.1839300000000001e+00 0.0000000000000000e+00 0 0 0
1881 141 4 -3.6749999999999998e+00 -9.0932499999999994e+00 0.0000000000000000e+00 0 0 0
1882 142 4 -3.6749999999999998e+00 -7.2746000000000004e+00 0.0000000000000000e+00 0 0 0
1891 151 4 -3.1499999999999999e+00 -8.1839300000000001e+00 0.0000000000000000e+00 0 0 0
1901 161 4 -2.6250000000000000e+00 -9.0932499999999994e+00 0.0000000000000000e+00 0 0 0
1902 162 4 -2.6250000000000000e+00 -7.2746000000000004e+00 0.0000000000000000e+00 0 0 0
1911 171 4 -2.1000000000000001e+00 -8.1839300000000001e+00 0.0000000000000000e+00 0 0 0
1921 181 4 -1.5750000000000000e+00 -9.0932499999999994e+00 0.0000000000000000e+00 0 0 0
1922 182 4 -1.5750000000000000e+00 -7.2746000000000004e+00 0.0000000000000000e+00 0 0 0
1931 191 4 -1.0500000000000000e+00 -8.1839300000000001e+00 0.0000000000000000e+00 0 0 0
1942 202 4 -5.2500000000000002e-01 -7.2746000000000004e+00 0.0000000000000000e+00 0 0 0
1941 201 4 -5.2500000000000002e-01 -9.0932499999999994e+00 0.0000000000000000e+00 0 0 0
1812 72 4 -7.3499999999999996e+00 -6.3652800000000003e+00 0.0000000000000000e+00 0 0 0
1832 92 4 -6.2999999999999998e+00 -6.3652800000000003e+00 0.0000000000000000e+00 0 0 0
1803 63 4 -7.8750000000000000e+00 -5.4559499999999996e+00 0.0000000000000000e+00 0 0 0
1823 83 4 -6.8250000000000002e+00 -5.4559499999999996e+00 0.0000000000000000e+00 0 0 0
1843 103 4 -5.7750000000000004e+00 -5.4559499999999996e+00 0.0000000000000000e+00 0 0 0
1813 73 4 -7.3499999999999996e+00 -4.5466300000000004e+00 0.0000000000000000e+00 0 0 0
1833 93 4 -6.2999999999999998e+00 -4.5466300000000004e+00 0.0000000000000000e+00 0 0 0
1852 112 4 -5.2500000000000000e+00 -6.3652800000000003e+00 0.0000000000000000e+00 0 0 0
1872 132 4 -4.2000000000000002e+00 -6.3652800000000003e+00 0.0000000000000000e+00 0 0 0
1892 152 4 -3.1499999999999999e+00 -6.3652800000000003e+00 0.0000000000000000e+00 0 0 0
1863 123 4 -4.7249999999999996e+00 -5.4559499999999996e+00 0.0000000000000000e+00 0 0 0
1883 143 4 -3.6749999999999998e+00 -5.4559499999999996e+00 0.0000000000000000e+00 0 0 0
1853 113 4 -5.2500000000000000e+00 -4.5466300000000004e+00 0.0000000000000000e+00 0 0 0
1873 133 4 -4.2000000000000002e+00 -4.5466300000000004e+00 0.0000000000000000e+00 0 0 0
1893 153 4 -3.1499999999999999e+00 -4.5466300000000004e+00 0.0000000000000000e+00 0 0 0
1912 172 4 -2.1000000000000001e+00 -6.3652800000000003e+00 0.0000000000000000e+00 0 0 0
1932 192 4 -1.0500000000000000e+00 -6.3652800000000003e+00 0.0000000000000000e+00 0 0 0
1903 163 4 -2.6250000000000000e+00 -5.4559499999999996e+00 0.0000000000000000e+00 0 0 0
1923 183 4 -1.5750000000000000e+00 -5.4559499999999996e+00 0.0000000000000000e+00 0 0 0
1943 203 4 -5.2500000000000002e-01 -5.4559499999999996e+00 0.0000000000000000e+00 0 0 0
1913 173 4 -2.1000000000000001e+00 -4.5466300000000004e+00 0.0000000000000000e+00 0 0 0
1933 193 4 -1.0500000000000000e+00 -4.5466300000000004e+00 0.0000000000000000e+00 0 0 0
1804 64 4 -7.8750000000000000e+00 -3.6373000000000002e+00 0.0000000000000000e+00 0 0 0
1824 84 4 -6.8250000000000002e+00 -3.6373000000000002e+00 0.0000000000000000e+00 0 0 0
1844 104 4 -5.7750000000000004e+00 -3.6373000000000002e+00 0.0000000000000000e+00 0 0 0
1814 74 4 -7.3499999999999996e+00 -2.7279800000000001e+00 0.0000000000000000e+00 0 0 0
1834 94 4 -6.2999999999999998e+00 -2.7279800000000001e+00 0.0000000000000000e+00 0 0 0
1864 124 4 -4.7249999999999996e+00 -3.6373000000000002e+00 0.0000000000000000e+00 0 0 0
1884 144 4 -3.6749999999999998e+00 -3.6373000000000002e+00 0.0000000000000000e+00 0 0 0
1854 114 4 -5.2500000000000000e+00 -2.7279800000000001e+00 0.0000000000000000e+00 0 0 0
1874 134 4 -4.2000000000000002e+00 -2.7279800000000001e+00 0.0000000000000000e+00 0 0 0
1894 154 4 -3.1499999999999999e+00 -2.7279800000000001e+00 0.0000000000000000e+00 0 0 0
1904 164 4 -2.6250000000000000e+00 -3.6373000000000002e+00 0.0000000000000000e+00 0 0 0
1924 184 4 -1.5750000000000000e+00 -3.6373000000000002e+00 0.0000000000000000e+00 0 0 0
1944 204 4 -5.2500000000000002e-01 -3.6373000000000002e+00 0.0000000000000000e+00 0 0 0
1914 174 4 -2.1000000000000001e+00 -2.7279800000000001e+00 0.0000000000000000e+00 0 0 0
1934 194 4 -1.0500000000000000e+00 -2.7279800000000001e+00 0.0000000000000000e+00 0 0 0
1805 65 4 -7.8750000000000000e+00 -1.8186500000000001e+00 0.0000000000000000e+00 0 0 0
1815 75 4 -7.3499999999999996e+00 -9.0932999999999997e-01 0.0000000000000000e+00 0 0 0
1825 85 4 -6.8250000000000002e+00 -1.8186500000000001e+00 0.0000000000000000e+00 0 0 0
1835 95 4 -6.2999999999999998e+00 -9.0932999999999997e-01 0.0000000000000000e+00 0 0 0
1845 105 4 -5.7750000000000004e+00 -1.8186500000000001e+00 0.0000000000000000e+00 0 0 0
1826 86 4 -6.8250000000000002e+00 0.0000000000000000e+00 0.0000000000000000e+00 0 0 0
1806 66 4 -7.8750000000000000e+00 0.0000000000000000e+00 0.0000000000000000e+00 0 0 0
1846 106 4 -5.7750000000000004e+00 0.0000000000000000e+00 0.0000000000000000e+00 0 0 0
1855 115 4 -5.2500000000000000e+00 -9.0932999999999997e-01 0.0000000000000000e+00 0 0 0
1865 125 4 -4.7249999999999996e+00 -1.8186500000000001e+00 0.0000000000000000e+00 0 0 0
1875 135 4 -4.2000000000000002e+00 -9.0932999999999997e-01 0.0000000000000000e+00 0 0 0
1885 145 4 -3.6749999999999998e+00 -1.8186500000000001e+00 0.0000000000000000e+00 0 0 0
1895 155 4 -3.1499999999999999e+00 -9.0932999999999997e-01 0.0000000000000000e+00 0 0 0
1866 126 4 -4.7249999999999996e+00 0.0000000000000000e+00 0.0000000000000000e+00 0 0 0
1886 146 4 -3.6749999999999998e+00 0.0000000000000000e+00 0.0000000000000000e+00 0 0 0
1905 165 4 -2.6250000000000000e+00 -1.8186500000000001e+00 0.0000000000000000e+00 0 0 0
1915 175 4 -2.1000000000000001e+00 -9.0932999999999997e-01 0.0000000000000000e+00 0 0 0
1925 185 4 -1.5750000000000000e+00 -1.8186500000000001e+00 0.0000000000000000e+00 0 0 0
1935 195 4 -1.0500000000000000e+00 -9.0932999999999997e-01 0.0000000000000000e+00 0 0 0
1945 205 4 -5.2500000000000002e-01 -1.8186500000000001e+00 0.0000000000000000e+00 0 0 0
1906 166 4 -2.6250000000000000e+00 0.0000000000000000e+00 0.0000000000000000e+00 0 0 0
1946 206 4 -5.2500000000000002e-01 0.0000000000000000e+00 0.0000000000000000e+00 0 0 0
1926 186 4 -1.5750000000000000e+00 0.0000000000000000e+00 0.0000000000000000e+00 0 0 0
32 2 2 -6.8482954826819862e+00 -8.1317297310336656e+00 1.8152469768820880e+00 0 0 0
31 2 1 -5.9062500000000000e+00 -8.3354800000000004e+00 1.6875024916199077e+00 0 0 0
334 12 2 -5.3434658131581028e+00 -7.4948613165153679e+00 2.9641419892097134e+00 0 0 0
1 1 1 -7.4812500000000002e+00 -6.8199399999999999e+00 1.6875024916199077e+00 0 0 0
36 2 2 -7.5442532151143533e+00 -7.7037217942131395e+00 2.8364632080923737e+00 0 0 0
37 2 2 -6.7319967906364226e+00 -7.3650243525651078e+00 3.2716497153782216e+00 0 0 0
91 4 1 -2.7562500000000001e+00 -8.3354800000000004e+00 1.6875024916199077e+00 0 0 0
92 4 2 -3.6103701644831125e+00 -8.6414895632444395e+00 2.0553282622778823e+00 0 0 0
61 3 1 -4.3312499999999998e+00 -6.8199399999999999e+00 1.6875024916199077e+00 0 0 0
64 3 2 -3.6159292293796441e+00 -6.9328828572993411e+00 3.0150628272747055e+00 0 0 0
93 4 2 -3.5662469359811091e+00 -8.1896672496027421e+00 2.8526971437962749e+00 0 0 0
123 5 2 -7.1418147566224333e-01 -7.3624227180119375e+00 2.8024772258762671e+00 0 0 0
121 5 1 -1.1812499999999999e+00 -6.8199399999999999e+00 1.6875024916199077e+00 0 0 0
152 6 2 -2.5227552313217499e-01 -8.7724979843545174e+00 2.2244971788499699e+00 0 0 0
573 20 2 -7.0893714712854798e+00 -5.7125510796072714e+00 1.9004077773668295e+00 1 0 0
38 2 2 -7.3182454292161694e+00 -6.6358735966723854e+00 3.0147356603856412e+00 0 0 0
333 12 2 -5.7211548953363520e+00 -6.6700063745663680e+00 2.5319936860978269e+00 0 0 0
332 12 2 -5.2867099757838085e+00 -5.8265841639683060e+00 2.2470236262595025e+00 0 0 0
331 12 1 -5.9062500000000000e+00 -5.3044000000000002e+00 1.6875024916199077e+00 0 0 0
574 20 2 -7.0924081788146518e+00 -5.3467519217177593e+00 2.7386748100615956e+00 1 0 0
63 3 2 -3.0753269788812867e+00 -6.7538841337985112e+00 2.2242457282525043e+00 0 0 0
62 3 2 -3.7312475289082334e+00 -6.1118098060611157e+00 1.8390561154948557e+00 0 0 0
391 14 1 -2.7562500000000001e+00 -5.3044000000000002e+00 1.6875024916199077e+00 0 0 0
65 3 2 -4.3835682539863088e+00 -6.4566138314180330e+00 2.6611164027164942e+00 0 0 0
66 3 2 -4.8483224542769561e+00 -6.0336766883108810e+00 3.4108176273395201e+00 0 0 0
395 14 2 -1.8027089355741330e+00 -5.2020182806947783e+00 3.4510493873838906e+00 0 0 0
122 5 2 -1.3117106650389223e+00 -6.4638138449967082e+00 2.6233591625765738e+00 0 0 0
397 14 2 -2.0056794292306859e+00 -6.4267045242212744e+00 3.6997117078950059e+00 0 0 0
301 11 1 -7.4812500000000002e+00 -3.7888500000000001e+00 1.6875024916199077e+00 0 0 0
302 11 2 -6.8484856994660035e+00 -3.5092239667028009e+00 2.2874531886410217e+00 0 0 0
363 13 2 -5.2839775013531103e+00 -3.3197081853135466e+00 2.8032728938246243e+00 0 0 0
364 13 2 -5.6648935163184140e+00 -3.0042909186388607e+00 3.6477971495739472e+00 0 0 0
631 22 1 -5.9062500000000000e+00 -2.2733099999999999e+00 1.6875024916199077e+00 0 0 0
718 24 2 -6.1746550053560556e+00 -4.4424473545224750e+00 3.6998962047144759e+00 0 0 0
303 11 2 -7.2425432836953227e+00 -3.8747588640089328e+00 3.0573320367387202e+00 0 0 0
392 14 2 -2.7459950492020759e+00 -4.4238659161236740e+00 2.1814278743422517e+00 0 0 0
692 24 2 -2.9946785690002575e+00 -2.4098142913833218e+00 2.6549941052841786e+00 0 0 0
393 14 2 -2.9254090625471330e+00 -4.4025093002931337e+00 3.1706896213930165e+00 0 0 0
362 13 2 -4.6326441365011073e+00 -3.0500404418407969e+00 2.2250618007941965e+00 0 0 0
361 13 1 -4.3312499999999998e+00 -3.7888500000000001e+00 1.6875024916199077e+00 0 0 0
691 24 1 -2.7562500000000001e+00 -2.2733099999999999e+00 1.6875024916199077e+00 0 0 0
700 24 2 -3.6164789797098731e+00 -3.5201718722379689e+00 3.4535453089069890e+00 0 0 0
424 15 2 -9.5683303392421371e-01 -4.1850346127963460e+00 3.3969368324286751e+00 0 0 0
694 24 2 -1.8524315636533033e+00 -2.9739145093808825e+00 3.2856002086119154e+00 0 0 0
422 15 2 -1.2186278903663934e+00 -4.3633329949807012e+00 2.4154504869270741e+00 0 0 0
421 15 1 -1.1812499999999999e+00 -3.7888500000000001e+00 1.6875024916199077e+00 0 0 0
695 24 2 -9.0988352071330725e-01 -2.8659847854897320e+00 3.4266483757306512e+00 0 0 0
423 15 2 -1.8974537045302104e+00 -4.1578115132252123e+00 3.1292011124803341e+00 0 0 0
935 32 2 -6.2380012621771188e+00 -5.2398475451947313e-01 3.5930780021244959e+00 0 0 0
601 21 1 -7.4812500000000002e+00 -7.5777000000000005e-01 1.6875024916199077e+00 0 0 0
632 22 2 -5.7274482615299274e+00 -1.3193719816160685e+00 1.5526727270364586e+00 0 0 0
633 22 2 -5.7492715398469230e+00 -7.8671002388898736e-01 2.3760908792564814e+00 0 0 0
937 32 2 -7.3200175691283453e+00 -2.0024859431354329e+00 3.6815437895001510e+00 0 0 0
936 32 2 -6.5426595854220864e+00 -1.5591897309534750e+00 3.5239023971119465e+00 0 0 0
878 30 2 -7.6980806127290977e+00 -1.3869862397536923e+00 2.9024047829037825e+00 1 0 0
661 23 1 -4.3312499999999998e+00 -7.5777000000000005e-01 1.6875024916199077e+00 0 0 0
634 22 2 -4.9293847375615414e+00 -7.9041283625056158e-01 2.8296649096796349e+00 0 0 0
635 22 2 -4.7577121695917297e+00 -1.3364367289391237e+00 3.5965651280591993e+00 0 0 0
663 23 2 -4.2909303896629449e+00 2.1722907386054039e-02 2.6285745836082191e+00 0 0 0
662 23 2 -3.8094184746348851e+00 -1.5438834337746465e-02 1.8927048855568729e+00 0 0 0
664 23 2 -4.3585615541072888e+00 -7.8900119921078135e-02 3.5499135036173093e+00 0 0 0
693 24 2 -2.1182079461626691e+00 -2.2041650711048075e+00 2.6763274777899748e+00 0 0 0
696 24 2 -1.3994319414580776e+00 -2.0570467805639314e+00 3.6476036963703660e+00 0 0 0
721 25 1 -1.1812499999999999e+00 -7.5777000000000005e-01 1.6875024916199077e+00 0 0 0
756 26 2 -2.1313195474860905e-01 -1.1020330808699452e+00 3.2396371532960706e+00 0 0 0
723 25 2 -1.6885006179694646e+00 -6.8768958711345507e-01 3.4478506157249464e+00 0 0 0
722 25 2 -1.6547338587080329e+00 -6.5077390374508171e-01 2.5436396269774142e+00 0 0 0
335 12 2 -5.5032127441291241e+00 -7.6010229273213454e+00 3.8942006248824357e+00 0 0 0
1504 51 2 -6.7479492500009686e+00 -8.7606867828923942e+00 3.9548388973350210e+00 0 1 0
1506 51 2 -7.7859000166572798e+00 -8.1308197292298452e+00 5.1481197003567383e+00 0 1 0
1505 51 2 -6.9901607189783226e+00 -8.5290669220148061e+00 4.8194305087012355e+00 0 1 0
338 12 2 -5.8835459793607479e+00 -8.4323633334309829e+00 5.3152897183852037e+00 0 0 0
94 4 2 -3.4100538443331248e+00 -8.5919582543857640e+00 3.7364401503402145e+00 0 0 0
336 12 2 -4.9673716602054574e+00 -7.8484513130388098e+00 4.7721901513627749e+00 0 0 0
337 12 2 -4.9589411735304472e+00 -8.7732949638719742e+00 5.1609857030715895e+00 0 0 0
43 2 2 -5.2398633083890243e+00 -6.8694487943082230e+00 5.8194550911281118e+00 0 0 0
96 4 2 -2.9849996469296221e+00 -8.2878773440997016e+00 5.3929146357488635e+00 0 0 0
95 4 2 -2.7538530230324123e+00 -8.7346695276870641e+00 4.5065699420394010e+00 0 0 0
124 5 2 -9.8224725012645453e-01 -7.7058694046547682e+00 3.7240805733414324e+00 0 0 0
125 5 2 -1.0375873086332001e+00 -7.8422515099346297e+00 4.7291802306387876e+00 0 0 0
400 14 2 -1.3274834007365635e+00 -6.9694045557260385e+00 5.3256637828695901e+00 0 0 0
399 14 2 -2.1805254967280092e+00 -7.0433285025746315e+00 4.9400429908886636e+00 0 0 0
398 14 2 -2.4405868657868974e+00 -7.2266442877699655e+00 3.9818838791615025e+00 0 0 0
126 5 2 -3.8068474847116318e-01 -8.4977144408212535e+00 5.1903788282407559e+00 0 0 0
40 2 2 -6.7664007442668002e+00 -6.4039928579907155e+00 4.1917547997635261e+00 0 0 0
39 2 2 -7.7524126641345257e+00 -6.6129435924586586e+00 3.9381585531145484e+00 0 0 0
719 24 2 -5.7482171775619939e+00 -4.9339321622804064e+00 4.4545390540574434e+00 0 0 0
41 2 2 -6.0272084978682443e+00 -6.4554588206390955e+00 4.8557026711505902e+00 0 0 0
716 24 2 -7.1527231066867261e+00 -4.9808679399140665e+00 5.1996605735597523e+00 0 0 0
42 2 2 -6.1669504359624732e+00 -6.7045270197419029e+00 5.7763576012969660e+00 0 0 0
715 24 2 -6.2856446345748553e+00 -5.1165226827386023e+00 5.7084222574344690e+00 0 0 0
577 20 2 -7.8669624036861041e+00 -4.9272916014103618e+00 4.3304079849503934e+00 1 0 0
69 3 2 -4.1768248328565347e+00 -5.5371694747568663e+00 5.8208341479572026e+00 0 0 0
68 3 2 -4.3713737934419559e+00 -5.9461779596480548e+00 4.9950646099923199e+00 0 0 0
67 3 2 -5.1420268189419609e+00 -6.1921412284937274e+00 4.3199278223483022e+00 0 0 0
394 14 2 -2.6274879664940110e+00 -4.9422122462059077e+00 3.9396100468611772e+00 0 0 0
396 14 2 -1.7342571661845130e+00 -5.7131187613275412e+00 4.3088025945069655e+00 0 0 0
429 15 2 -1.3795041029884705e+00 -5.1673734677196004e+00 5.2655318418248713e+00 0 0 0
430 15 2 -2.2649692618829320e+00 -4.9650577178340827e+00 5.4453931036403063e+00 0 0 0
431 15 2 -2.1762188508861247e+00 -5.9051021864561113e+00 5.2472361367258271e+00 0 0 0
425 15 2 -6.5380782707356400e-01 -4.9030033754961204e+00 3.9382060505141454e+00 0 0 0
305 11 2 -7.8464567101388285e+00 -3.6467966412438080e+00 4.5712198556371080e+00 0 0 0
365 13 2 -5.5680939778379983e+00 -3.2395965786286207e+00 4.5625259665658593e+00 0 0 0
717 24 2 -6.5904595047977468e+00 -4.3635312897640928e+00 4.6378865295036062e+00 0 0 0
938 32 2 -7.2006472680876774e+00 -2.7967658601233265e+00 4.2251910676407638e+00 0 0 0
939 32 2 -7.7506813930959311e+00 -2.7097407033555481e+00 5.0718567421765748e+00 0 0 0
940 32 2 -6.8236773842949194e+00 -2.2939769062495756e+00 5.0786372111796432e+00 0 0 0
941 32 2 -6.0784687947752980e+00 -2.3641257296769900e+00 5.7105837558459367e+00 0 0 0
306 11 2 -7.6024942535092057e+00 -3.7578628708796216e+00 5.5474190551653493e+00 0 0 0
307 11 2 -6.6456641761098183e+00 -3.6437061858024817e+00 5.5347176489721521e+00 0 0 0
720 24 3 -5.1415972288784388e+00 -4.2444325588942657e+00 4.2661911581565146e+00 0 0 0
699 24 2 -4.0014639553115323e+00 -2.6620634567828056e+00 3.7752149874346208e+00 0 0 0
366 13 2 -5.2505034854949626e+00 -3.4777486814669047e+00 5.4282174761561937e+00 0 0 0
701 24 2 -4.0151569858926202e+00 -4.2759443309068823e+00 3.9433545301655011e+00 0 0 0
703 24 2 -4.1298469902875823e+00 -4.3603678240642534e+00 5.4628118239786625e+00 0 0 0
702 24 2 -3.5126371972376189e+00 -4.0537801470764894e+00 4.6813481992292019e+00 0 0 0
638 22 2 -4.0238701075629457e+00 -2.9148438609993148e+00 5.6177846363213417e+00 0 0 0
427 15 2 -7.0446078031500770e-01 -4.0775495565214612e+00 5.5947061968653040e+00 0 0 0
426 15 2 -9.8148589633033745e-01 -4.1927453335130291e+00 4.6680384638325814e+00 0 0 0
1072 36 2 -2.2459134917518124e+00 -3.5488205340414702e+00 5.7340336638640181e+00 0 0 0
1074 36 2 -1.7835014369636755e+00 -2.8598860191829218e+00 4.6004632494620985e+00 0 0 0
1073 36 2 -2.4400378168456638e+00 -2.7235543979417822e+00 5.2527973344493732e+00 0 0 0
1075 36 2 -1.0274264434848728e+00 -2.4556658243124216e+00 4.9184486682198205e+00 0 0 0
1076 36 2 -2.1839147189716085e-01 -2.7529302539380880e+00 5.3088644382500361e+00 0 0 0
608 21 2 -6.5056589667309099e+00 -3.5636850245232360e-01 4.6711657919625393e+00 0 0 0
609 21 2 -6.5842687540530740e+00 -1.2445758749923390e+00 5.2052150055105857e+00 0 0 0
698 24 2 -3.3239958088890442e+00 -1.9612094378547535e+00 3.9485695203582560e+00 0 0 0
668 23 2 -3.1556290615880722e+00 -2.8646048441939470e-01 5.6528009457009905e+00 0 0 0
636 22 2 -4.4804704164826168e+00 -1.9663278604635068e+00 4.2525032738197011e+00 0 0 0
637 22 2 -4.3554761442149532e+00 -2.1911249241510187e+00 5.1768542153316579e+00 0 0 0
757 26 2 -5.0210780233010155e-01 -3.7114340165615489e-01 3.7049829825158529e+00 0 0 0
724 25 2 -1.6675695070847902e+00 -5.2098499525460373e-01 4.4777931339515895e+00 0 0 0
697 24 2 -2.3038430320322671e+00 -1.9215012071306483e+00 3.8997085810510543e+00 0 0 0
725 25 2 -1.7634424716123469e+00 -3.3724467365400113e-01 5.3816459079718157e+00 0 0 0
1058 36 2 -1.8471277366233771e-01 -1.7295419844189248e+00 4.4482636573409016e+00 0 0 0
1059 36 2 -3.3654530281722267e-01 -1.0652516969041461e+00 5.0985737588413889e+00 0 0 0
339 12 2 -6.1014555452948569e+00 -8.1420657950935880e+00 6.2704527408252435e+00 0 0 0
45 2 2 -5.8787487988201006e+00 -7.3954784931707538e+00 7.1096818048995560e+00 0 0 0
1508 51 2 -7.4557408839497246e+00 -8.5600210220710231e+00 6.5708827770831606e+00 0 1 0
340 12 2 -5.7431830166433953e+00 -8.8969235213375377e+00 6.7785059623671309e+00 0 0 0
46 2 2 -6.7043943396931471e+00 -7.7106613783376243e+00 7.5650154307355679e+00 0 0 0
1509 51 2 -7.3295100821101098e+00 -8.7861589198994601e+00 7.5075813822897164e+00 0 1 0
341 12 2 -6.0237726804559877e+00 -9.0752345939503591e+00 7.5999108616751316e+00 0 0 0
98 4 2 -3.9866663410784806e+00 -7.7970300654568137e+00 6.3629085873290574e+00 0 0 0
97 4 2 -3.1381105519811761e+00 -7.5995046552628329e+00 5.9579332860528904e+00 0 0 0
404 14 2 -2.8975348316323024e+00 -8.2899500953812080e+00 6.8575747423244442e+00 0 0 0
99 4 2 -3.8460721397446105e+00 -7.7846781170661412e+00 7.3788680943979728e+00 0 0 0
1630 55 2 -4.7633246774074571e+00 -9.0297067664740158e+00 7.4104048956338300e+00 0 1 0
401 14 2 -1.4019122868517646e+00 -7.2912923072855627e+00 6.1765096245901772e+00 0 0 0
128 5 2 -4.7846004586335150e-01 -9.0669368194617110e+00 6.3905446586578432e+00 0 0 0
539 18 2 -6.6391762714306424e-01 -8.6523155036932593e+00 7.7533774879825250e+00 0 0 0
402 14 2 -2.0262546479484773e+00 -7.3433561965539544e+00 6.8919367180991209e+00 0 0 0
403 14 2 -2.1906554040360677e+00 -8.0384294284358528e+00 7.4832222219176021e+00 0 0 0
540 18 3 -1.2033267610316352e+00 -8.5256057798878828e+00 7.0088427405319624e+00 0 0 0
714 24 2 -6.2053072934291782e+00 -5.5631198297614786e+00 6.5248235592830151e+00 0 0 0
713 24 2 -6.1421522374600110e+00 -5.1736351262881275e+00 7.4145364064411803e+00 0 0 0
70 3 2 -3.4044409198607544e+00 -5.8610727605179456e+00 6.3516620655042830e+00 0 0 0
71 3 2 -3.8779955729144735e+00 -5.4856988605768056e+00 7.0375923196831121e+00 0 0 0
72 3 2 -3.8422539949148731e+00 -6.4381076941609852e+00 7.1443976198572603e+00 0 0 0
44 2 2 -5.2317292007789327e+00 -6.7410155220626367e+00 6.7341815473146411e+00 0 0 0
73 3 2 -3.0922236384392758e+00 -6.2712018566083447e+00 7.7412777305486520e+00 0 0 0
432 15 2 -1.6763651440511382e+00 -6.1434001972742207e+00 6.0908211984542779e+00 0 0 0
428 15 2 -1.2978911825594726e+00 -4.6892701067962355e+00 6.1265089850834871e+00 0 0 0
433 15 2 -7.2753856703075326e-01 -6.1542642360483528e+00 6.2149068994325578e+00 0 0 0
434 15 2 -2.0609359832159449e-01 -6.0603397484981754e+00 6.9950439561070468e+00 0 0 0
367 13 2 -5.4645546835994310e+00 -4.2328554776090161e+00 5.9681146334317789e+00 0 0 0
368 13 2 -5.8424802856984224e+00 -4.3788607536185689e+00 6.9259835015095712e+00 0 0 0
369 13 2 -6.5779203785655644e+00 -3.9039054246617835e+00 7.3825049621630425e+00 0 0 0
370 13 2 -7.1892432560551276e+00 -4.2610096515569236e+00 8.0237857804616013e+00 0 0 0
308 11 2 -6.6060458991794153e+00 -3.1961154788745350e+00 6.3756881660156619e+00 0 0 0
708 24 2 -5.2752908276392434e+00 -3.9574587232062686e+00 8.1317819547724639e+00 0 0 0
309 11 2 -6.9674492729004731e+00 -2.9132936560769238e+00 7.2058344863987545e+00 0 0 0
310 11 2 -6.6331484539211081e+00 -2.3665474610748132e+00 7.9449028640872283e+00 0 0 0
704 24 2 -4.3794399516852289e+00 -4.1858089200187774e+00 6.3837653595462251e+00 0 0 0
1071 36 2 -2.9367655574795459e+00 -3.7161229463258931e+00 6.4186043843948877e+00 0 0 0
1070 36 2 -3.3029152985952051e+00 -3.9676270545130188e+00 7.2621120297104191e+00 0 0 0
705 24 2 -4.8207793544156914e+00 -3.7056328125515812e+00 7.0804074010865827e+00 0 0 0
706 24 2 -4.3742150759375695e+00 -3.1814008838365462e+00 7.8044974475972735e+00 0 0 0
639 22 2 -3.8258917345290446e+00 -2.9630390992594018e+00 6.6282840291719669e+00 0 0 0
640 22 2 -4.0412975092208656e+00 -2.2781535898322169e+00 7.2455122153593674e+00 0 0 0
1069 36 2 -2.3614972387617326e+00 -4.3280674706590894e+00 7.0642342427296692e+00 0 0 0
1063 36 2 -7.6966508958270141e-01 -2.4256546192660733e+00 6.0614917943949846e+00 0 0 0
1068 36 2 -2.0791027359636240e+00 -3.4543713869712138e+00 7.3502898905587584e+00 0 0 0
1064 36 2 -1.1655781770756408e+00 -2.6427273316328113e+00 6.9828010669086460e+00 0 0 0
1062 36 2 -4.5501740851669754e-02 -2.3995916466073668e+00 6.6848060945653041e+00 0 0 0
613 21 2 -7.2776455929999093e+00 -5.6224718204392443e-01 7.9112671727606276e+00 0 0 0
611 21 2 -6.2366504827484892e+00 -2.3610588932111176e-01 6.7814317959646377e+00 0 0 0
612 21 2 -6.8920204096195103e+00 -8.9148497407001581e-01 7.0830539662701133e+00 0 0 0
944 32 2 -6.2376451564595259e+00 -8.7953555664190097e-01 7.7738786011211403e+00 0 0 0
942 32 2 -5.7465257672105334e+00 -2.1852407447715150e+00 6.6513212265896815e+00 0 0 0
943 32 2 -5.8431208204292009e+00 -1.6590967045378655e+00 7.5285471187729938e+00 0 0 0
610 21 2 -6.7125010699052279e+00 -6.6598504797847036e-01 5.9561203280268655e+00 0 0 0
976 33 2 -4.4091630921342642e+00 -7.6032076630368151e-01 6.9167362873359144e+00 0 0 0
977 33 2 -4.9293128816238241e+00 -4.9485685258159778e-01 7.6714140451297750e+00 0 0 0
641 22 2 -4.1867357646917700e+00 -1.9854965673216001e+00 8.1597484476939091e+00 0 0 0
975 33 2 -5.2184385081190747e+00 -5.3205303624649125e-01 6.4374717689025438e+00 0 0 0
1060 36 2 -2.8217845495534027e-01 -1.2075374162754744e+00 6.0316947570073731e+00 0 0 0
727 25 2 -1.3775224498507128e+00 -2.3856880488376936e-01 6.4459715987857269e+00 0 0 0
726 25 2 -1.6933662979753588e+00 -1.0528165970189460e+00 5.9782784594713547e+00 0 0 0
670 23 2 -2.2770944663628989e+00 -4.9487881643729836e-01 6.7456732778017594e+00 0 0 0
1065 36 2 -1.7185054664828716e+00 -2.2069513142968749e+00 7.5045695493930067e+00 0 0 0
671 23 2 -1.6870991732535767e+00 -7.6051781502353921e-01 7.5097231563165519e+00 0 0 0
466 16 2 -1.4825906841649369e-01 -5.2471346288032183e-01 7.6312517695249698e+00 0 0 0
1510 51 2 -7.1826507642917070e+00 -8.6247134702008026e+00 8.4271153441021660e+00 0 1 0
1511 51 2 -7.5937283281411325e+00 -9.0289317608708775e+00 9.2318449949041010e+00 0 1 0
1512 51 2 -7.2019099088348533e+00 -8.3163721569903775e+00 9.8701122044281639e+00 0 1 0
342 12 2 -5.3777209922995786e+00 -9.0022475753178490e+00 8.3576007895354696e+00 0 0 0
344 12 2 -5.2861677610606863e+00 -8.4487697969383841e+00 9.9624322236558651e+00 0 0 0
48 2 2 -6.7372465360542684e+00 -7.0855299088383576e+00 9.3269808182651790e+00 0 0 0
47 2 2 -6.9457619899504861e+00 -7.5161108303584534e+00 8.5383431335355535e+00 0 0 0
49 2 2 -6.0808785945114749e+00 -6.9238367377385925e+00 1.0105309216879784e+01 0 0 0
1633 55 2 -4.1944408612707038e+00 -8.9864691041345104e+00 9.6930952169320594e+00 0 1 0
78 3 2 -3.4421760717984129e+00 -7.0366481646683354e+00 9.9752813364776269e+00 0 0 0
343 12 2 -4.8655739198394539e+00 -8.6546832311806412e+00 9.0664115884169671e+00 0 0 0
100 4 2 -3.6615693923503674e+00 -7.9538194809929896e+00 8.3588519950194247e+00 0 0 0
101 4 2 -3.1702064825766736e+00 -8.6692777509856356e+00 8.7600955625724044e+00 0 0 0
77 3 2 -4.2945650555791293e+00 -7.4279738777083528e+00 9.6731571390204003e+00 0 0 0
76 3 2 -4.3899219802309739e+00 -7.1210471007479352e+00 8.6738495804898648e+00 0 0 0
103 4 2 -2.2162864343673228e+00 -9.0816296594637897e+00 1.0222346825161278e+01 0 0 0
538 18 2 -8.9653334312160982e-01 -8.4571818722985839e+00 8.7238504463696049e+00 0 0 0
535 18 2 -2.6817515313055607e-01 -6.9210921074846619e+00 9.9132621365252689e+00 0 0 0
537 18 2 -4.1516078710129473e-01 -8.1377938827923586e+00 9.5664220891971521e+00 0 0 0
102 4 2 -2.3796696619085851e+00 -8.8633443558214413e+00 9.2913025604803181e+00 0 0 0
582 20 2 -7.5717319112110628e+00 -5.6754611921117508e+00 8.3190698183605569e+00 1 0 0
585 20 2 -5.9786752705200170e+00 -5.5047984633422207e+00 1.0258678132831804e+01 1 0 0
712 24 2 -5.7280487720729996e+00 -5.4825260019794797e+00 8.2169063307146502e+00 0 0 0
711 24 2 -6.0774543007951234e+00 -5.4003970922613371e+00 9.1199115568778577e+00 0 0 0
583 20 2 -6.9434164822454623e+00 -5.9562870945240745e+00 9.0856526444465437e+00 1 0 0
584 20 2 -6.8233121028317090e+00 -5.8281348624772500e+00 1.0098322946240856e+01 1 0 0
710 24 2 -6.7204171113968423e+00 -4.7531492163939069e+00 8.8925527180472077e+00 0 0 0
74 3 2 -2.7748266564347523e+00 -6.1669391397653488e+00 8.6507190716374343e+00 0 0 0
75 3 2 -3.6446333542235854e+00 -6.4697559865318333e+00 8.8397089499108965e+00 0 0 0
80 3 2 -2.6023796709625135e+00 -5.9204064092148068e+00 9.9611736590894875e+00 0 0 0
589 20 2 -6.5021754965375145e+00 -4.1069470356852049e+00 1.0368988198848715e+01 1 0 0
371 13 2 -6.9439145900167052e+00 -3.4449033210740421e+00 8.4191223308362275e+00 0 0 0
588 20 2 -5.5796395781447305e+00 -3.9617335409477819e+00 9.8885932310067730e+00 1 0 0
373 13 2 -7.1855986153861533e+00 -4.1929337259499331e+00 9.6515367601727853e+00 0 0 0
372 13 2 -6.4831448993006857e+00 -3.7810236465472826e+00 9.2257304004127558e+00 0 0 0
311 11 2 -7.0331211029446532e+00 -2.3333913223001419e+00 8.7818334781923344e+00 0 0 0
709 24 2 -6.1804529640070021e+00 -4.2350517785922399e+00 8.2904752068858336e+00 0 0 0
677 23 2 -3.5432947729942157e+00 -3.8018351767454712e+00 9.7296905845170816e+00 0 0 0
707 24 2 -4.3801165334438821e+00 -3.9330262723587750e+00 8.3587896093209118e+00 0 0 0
1067 36 2 -1.9704327302987128e+00 -3.1883642699646759e+00 8.2714296574974124e+00 0 0 0
1066 36 2 -1.6193422185455302e+00 -2.2977754558608772e+00 8.5187120288782587e+00 0 0 0
675 23 2 -2.0602230234263486e+00 -3.0995856364367902e+00 9.9550946017387236e+00 0 0 0
676 23 2 -2.6061008457427404e+00 -3.9776397711630271e+00 9.7476155314506769e+00 0 0 0
674 23 2 -2.5532543322835313e+00 -2.7786248498952486e+00 9.1546864945902708e+00 0 0 0
980 33 2 -5.5074045753874730e+00 -1.0406719896345502e+00 9.4159823696777387e+00 0 0 0
615 21 2 -7.8153343472500287e+00 -1.0219350625362777e+00 9.7164204548487163e+00 0 0 0
614 21 2 -7.6456820598664148e+00 -7.6658224591995283e-01 8.7849345152794740e+00 0 0 0
312 11 2 -7.2464715020951971e+00 -2.1328914848213563e+00 9.6916410250928351e+00 0 0 0
313 11 2 -6.5036000054552989e+00 -2.0810058119188137e+00 1.0356917918708019e+01 0 0 0
616 21 2 -7.5983368983400510e+00 -1.1578571860801354e-01 9.9940051291135781e+00 0 0 0
945 32 2 -6.0982870647199858e+00 -1.6786850618974503e-01 8.3504005838445945e+00 0 0 0
643 22 2 -3.1555865246876680e+00 -1.1452819841231645e+00 9.6241049722721979e+00 0 0 0
981 33 2 -5.0575691373194651e+00 -1.3871771665853740e+00 1.0194280691706737e+01 0 0 0
644 22 2 -2.9434030655508843e+00 -1.7820788148719375e+00 1.0348995863986676e+01 0 0 0
982 33 2 -4.5368423080659150e+00 -2.2381156389849979e+00 1.0161819125509915e+01 0 0 0