ITEM: TIMESTEP
0
ITEM: NUMBER OF ATOMS
30
ITEM: BOX BOUNDS pp pp pp
-5.7758099999999999e+00 5.7758099999999999e+00
-5.7758099999999999e+00 5.7758099999999999e+00
-5.7758099999999999e+00 5.7758099999999999e+00
ITEM: ATOMS id mol type xu yu zu 
1 1 1 -0.859554 20.5498 -17.4274 
2 1 1 0.0641897 20.8778 -17.401 
3 1 1 0.883728 20.4405 -17.659 
4 1 1 0.897487 19.4713 -17.9103 
5 1 1 0.84232 19.4683 -18.9091 
6 1 1 0.537039 18.6535 -19.2225 
7 1 1 0.650844 17.9615 -18.5378 
8 1 1 1.00774 17.2076 -18.9673 
9 1 1 0.447028 16.3718 -19.0904 
10 1 1 0.000505717 16.3819 -18.2569 
11 1 1 -0.174602 15.4033 -18.2047 
12 1 1 0.400115 14.7293 -17.8572 
13 1 1 0.9447 14.6794 -18.6412 
14 1 1 1.82963 15.0617 -18.6625 
15 1 1 2.30248 15.936 -18.7563 
16 1 1 3.20671 15.7794 -18.5606 
17 1 1 3.24886 16.2329 -17.7313 
18 1 1 2.85575 15.6047 -17.1285 
19 1 1 2.50997 14.7545 -17.4704 
20 1 1 1.75233 14.2094 -17.2974 
21 1 1 1.25153 14.1414 -16.4541 
22 1 1 0.823183 14.9423 -16.3412 
23 1 1 -0.111439 14.9598 -16.5274 
24 1 1 -0.261952 15.8759 -16.2266 
25 1 1 -0.175952 16.8061 -16.4803 
26 1 1 0.173656 17.3738 -15.8056 
27 1 1 0.670317 16.8109 -15.2421 
28 1 1 1.4381 16.989 -15.8445 
29 1 1 1.85765 16.6544 -16.6757 
30 1 1 1.37282 17.1849 -17.3591 
ITEM: TIMESTEP
1000
ITEM: NUMBER OF ATOMS
30
ITEM: BOX BOUNDS pp pp pp
-5.7758099999999999e+00 5.7758099999999999e+00
-5.7758099999999999e+00 5.7758099999999999e+00
-5.7758099999999999e+00 5.7758099999999999e+00
ITEM: ATOMS id mol type xu yu zu 
1 1 1 -0.624978 20.5024 -17.1481 
2 1 1 0.208413 20.7085 -17.607 
3 1 1 0.776333 20.3596 -18.2962 
4 1 1 0.969833 19.4307 -18.237 
5 1 1 0.969385 19.001 -19.1335 
6 1 1 0.379183 18.285 -18.9136 
7 1 1 0.811302 17.625 -18.4142 
8 1 1 0.642816 16.8103 -18.9049 
9 1 1 0.230183 15.9555 -19.0929 
10 1 1 -0.192761 15.7264 -18.2207 
11 1 1 -0.303472 14.8256 -17.9818 
12 1 1 0.534872 14.4545 -18.1197 
13 1 1 0.856057 14.8652 -18.9186 
14 1 1 1.42371 15.5835 -18.5347 
15 1 1 2.17451 16.1091 -18.7596 
16 1 1 2.84339 15.655 -18.2248 
17 1 1 3.21933 16.3347 -17.693 
18 1 1 2.9054 15.6521 -17.0336 
19 1 1 2.89616 14.6858 -17.1854 
20 1 1 2.02367 14.3309 -17.2535 
21 1 1 1.66659 14.0316 -16.413 
22 1 1 1.04698 14.746 -16.3829 
23 1 1 0.0697683 14.9216 -16.3935 
24 1 1 -0.0584885 15.8307 -16.2271 
25 1 1 -0.602077 16.5374 -15.9319 
26 1 1 -0.0723483 17.281 -15.5993 
27 1 1 0.79773 16.9181 -15.3413 
28 1 1 1.65515 17.0897 -15.7773 
29 1 1 1.75776 16.7117 -16.6837 
30 1 1 0.991428 16.5329 -17.2307 
ITEM: TIMESTEP
2000
ITEM: NUMBER OF ATOMS
30
ITEM: BOX BOUNDS pp pp pp
-5.7758099999999999e+00 5.7758099999999999e+00
-5.7758099999999999e+00 5.7758099999999999e+00
-5.7758099999999999e+00 5.7758099999999999e+00
ITEM: ATOMS id mol type xu yu zu 
1 1 1 -0.369319 20.6155 -17.1478 
2 1 1 0.487311 20.8368 -17.4304 
3 1 1 0.943465 20.0462 -17.7572 
4 1 1 1.51831 19.3038 -17.9767 
5 1 1 0.881314 19.2623 -18.6834 
6 1 1 0.274762 18.4832 -18.6948 
7 1 1 0.0783233 17.5631 -18.4241 
8 1 1 0.320232 16.7997 -18.9386 
9 1 1 0.0160453 15.9784 -19.2893 
10 1 1 -0.305578 15.5159 -18.479 
11 1 1 -0.178267 14.6575 -17.9556 
12 1 1 0.747379 14.3495 -18.0698 
13 1 1 1.34406 14.5146 -18.8106 
14 1 1 1.67525 15.4041 -18.5512 
15 1 1 1.81476 16.3159 -18.6783 
16 1 1 2.80342 16.3914 -18.6321 
17 1 1 3.08516 16.4118 -17.726 
18 1 1 2.94062 15.9914 -16.8848 
19 1 1 2.95189 15.0872 -17.0025 
20 1 1 2.25195 14.5077 -17.2017 
21 1 1 1.50628 14.1292 -16.7239 
22 1 1 0.777458 14.68 -16.5083 
23 1 1 -0.13978 14.7746 -16.2291 
24 1 1 -0.423746 15.7118 -16.3622 
25 1 1 -0.436492 16.6353 -16.143 
26 1 1 0.331939 17.176 -16.0431 
27 1 1 1.06249 17.3141 -15.4447 
28 1 1 1.9092 17.255 -15.8266 
29 1 1 1.70824 16.8642 -16.7313 
30 1 1 1.16433 16.1944 -17.1368 
ITEM: TIMESTEP
3000
ITEM: NUMBER OF ATOMS
30
ITEM: BOX BOUNDS pp pp pp
-5.7758099999999999e+00 5.7758099999999999e+00
-5.7758099999999999e+00 5.7758099999999999e+00
-5.7758099999999999e+00 5.7758099999999999e+00
ITEM: ATOMS id mol type xu yu zu 
1 1 1 -0.298163 20.718 -16.9085 
2 1 1 0.678355 20.7045 -16.9884 
3 1 1 0.925819 20.284 -17.7957 
4 1 1 1.10524 19.6405 -18.4733 
5 1 1 0.862437 18.9294 -19.0571 
6 1 1 0.48015 18.0609 -18.9573 
7 1 1 -0.1654 17.4824 -18.6517 
8 1 1 -0.234566 16.744 -19.2632 
9 1 1 0.106742 15.879 -19.2999 
10 1 1 -0.245076 15.5007 -18.4803 
11 1 1 -0.106507 14.7359 -17.9349 
12 1 1 0.783299 14.3751 -17.9426 
13 1 1 1.11163 14.743 -18.7715 
14 1 1 1.71915 15.3844 -18.4441 
15 1 1 1.6766 16.34 -18.6378 
16 1 1 2.58832 16.7427 -18.5328 
17 1 1 3.07144 16.3435 -17.8139 
18 1 1 3.07751 15.7562 -17.0752 
19 1 1 2.85249 14.83 -17.3 
20 1 1 1.98034 14.5233 -17.0698 
21 1 1 1.3588 14.6951 -16.4113 
22 1 1 0.406642 14.5476 -16.4544 
23 1 1 -0.347203 15.0665 -16.5808 
24 1 1 -0.540895 15.8958 -17.0464 
25 1 1 -0.408512 16.6511 -16.4835 
26 1 1 -0.177 17.4812 -16.1145 
27 1 1 0.689182 17.5883 -15.6572 
28 1 1 1.53667 17.1186 -15.8562 
29 1 1 1.26775 16.7831 -16.6895 
30 1 1 1.47462 16.0181 -17.1996 
ITEM: TIMESTEP
4000
ITEM: NUMBER OF ATOMS
30
ITEM: BOX BOUNDS pp pp pp
-5.7758099999999999e+00 5.7758099999999999e+00
-5.7758099999999999e+00 5.7758099999999999e+00
-5.7758099999999999e+00 5.7758099999999999e+00
ITEM: ATOMS id mol type xu yu zu 
1 1 1 -0.779147 20.823 -17.317 
2 1 1 0.0105804 20.3457 -17.2551 
3 1 1 0.574078 19.6201 -17.4668 
4 1 1 0.54803 19.5156 -18.417 
5 1 1 0.706083 18.602 -18.6213 
6 1 1 0.341137 17.6925 -18.4237 
7 1 1 -0.230446 16.9811 -18.6297 
8 1 1 -0.365265 16.3383 -19.3069 
9 1 1 0.0173446 15.478 -18.9816 
10 1 1 -0.379641 15.1903 -18.175 
11 1 1 -0.329318 14.216 -17.9647 
12 1 1 0.539702 13.9391 -18.2241 
13 1 1 1.15267 14.6383 -18.5498 
14 1 1 1.85243 15.1972 -18.8677 
15 1 1 1.58962 16.0751 -18.6764 
16 1 1 2.36523 16.481 -18.2859 
17 1 1 3.15677 15.9487 -18.1527 
18 1 1 3.03638 15.4026 -17.349 
19 1 1 2.61557 14.6135 -17.7342 
20 1 1 2.02681 14.3672 -16.9837 
21 1 1 1.12517 14.2223 -16.633 
22 1 1 0.243913 14.3831 -16.2606 
23 1 1 -0.265623 15.1467 -15.9559 
24 1 1 -0.354391 15.63 -16.7635 
25 1 1 -0.566882 16.5656 -16.6623 
26 1 1 -0.643509 17.2584 -15.9855 
27 1 1 0.259956 17.3763 -15.6206 
28 1 1 1.00181 16.9769 -16.1336 
29 1 1 0.943367 16.5375 -16.9672 
30 1 1 1.1624 15.6616 -16.7149 
ITEM: TIMESTEP
5000
ITEM: NUMBER OF ATOMS
30
ITEM: BOX BOUNDS pp pp pp
-5.7758099999999999e+00 5.7758099999999999e+00
-5.7758099999999999e+00 5.7758099999999999e+00
-5.7758099999999999e+00 5.7758099999999999e+00
ITEM: ATOMS id mol type xu yu zu 
1 1 1 -1.23788 20.9907 -17.1294 
2 1 1 -0.394911 20.5822 -17.2511 
3 1 1 0.0978618 19.8678 -17.5993 
4 1 1 -0.235483 19.185 -18.1921 
5 1 1 0.569868 18.6942 -18.3615 
6 1 1 0.385688 17.7468 -18.3706 
7 1 1 -0.324953 17.1767 -18.1097 
8 1 1 -0.739544 16.3809 -18.4969 
9 1 1 -0.126063 15.6564 -18.4614 
10 1 1 -0.495636 15.0966 -17.7615 
11 1 1 -0.280919 14.1716 -17.5884 
12 1 1 0.592821 13.9913 -17.9243 
13 1 1 1.09407 14.5073 -18.5617 
14 1 1 1.26307 15.2541 -19.1799 
15 1 1 1.5895 16.0346 -18.6729 
16 1 1 2.41742 16.2315 -18.2993 
17 1 1 2.99688 15.4353 -18.1709 
18 1 1 3.1019 14.6605 -17.6575 
19 1 1 2.4413 13.9896 -17.8948 
20 1 1 1.98708 13.7869 -17.072 
21 1 1 1.31025 14.0879 -16.4553 
22 1 1 0.475748 14.4469 -16.085 
23 1 1 0.190858 15.2838 -16.4875 
24 1 1 -0.609479 15.8221 -16.4269 
25 1 1 -0.672937 16.7642 -16.5461 
26 1 1 -0.419393 17.391 -15.8924 
27 1 1 0.435302 17.119 -15.5132 
28 1 1 1.21914 16.9152 -16.0021 
29 1 1 1.1306 16.4341 -16.8333 
30 1 1 1.266 15.499 -16.9335 
ITEM: TIMESTEP
6000
ITEM: NUMBER OF ATOMS
30
ITEM: BOX BOUNDS pp pp pp
-5.7758099999999999e+00 5.7758099999999999e+00
-5.7758099999999999e+00 5.7758099999999999e+00
-5.7758099999999999e+00 5.7758099999999999e+00
ITEM: ATOMS id mol type xu yu zu 
1 1 1 -1.30429 21.3427 -17.4751 
2 1 1 -0.741981 20.6317 -17.2425 
3 1 1 0.0242761 20.2378 -17.5605 
4 1 1 -0.2445 19.3194 -17.7125 
5 1 1 0.545006 19.0721 -18.2059 
6 1 1 0.842287 18.1623 -18.218 
7 1 1 0.332035 17.3371 -18.1911 
8 1 1 -0.504145 16.9133 -17.8977 
9 1 1 -0.32559 15.9678 -18.0487 
10 1 1 -0.642926 15.158 -17.6902 
11 1 1 -0.487293 14.2535 -17.514 
12 1 1 0.402422 13.9926 -17.6886 
13 1 1 0.940276 14.164 -18.454 
14 1 1 1.03429 14.9337 -19.0228 
15 1 1 1.14036 15.8191 -18.7935 
16 1 1 1.71172 16.5706 -18.6378 
17 1 1 2.40352 16.0731 -18.1999 
18 1 1 2.83087 15.2361 -18.2534 
19 1 1 2.49167 14.5338 -17.7168 
20 1 1 2.00267 13.9879 -17.1638 
21 1 1 1.38627 13.9063 -16.3989 
22 1 1 0.673651 14.4773 -16.0611 
23 1 1 -0.054875 15.1288 -16.2108 
24 1 1 -0.310579 15.9984 -16.5261 
25 1 1 -0.685516 16.8382 -16.3202 
26 1 1 -0.403048 17.4805 -15.7084 
27 1 1 0.517863 17.2279 -15.5789 
28 1 1 1.42041 17.0216 -15.8369 
29 1 1 1.47351 16.4365 -16.5744 
30 1 1 1.81701 15.5625 -16.7329 
ITEM: TIMESTEP
7000
ITEM: NUMBER OF ATOMS
30
ITEM: BOX BOUNDS pp pp pp
-5.7758099999999999e+00 5.7758099999999999e+00
-5.7758099999999999e+00 5.7758099999999999e+00
-5.7758099999999999e+00 5.7758099999999999e+00
ITEM: ATOMS id mol type xu yu zu 
1 1 1 -1.1124 20.8079 -18.1834 
2 1 1 -0.687319 20.6237 -17.374 
3 1 1 -0.0226235 19.9903 -17.4195 
4 1 1 0.0453101 19.1588 -17.8676 
5 1 1 0.440162 18.8311 -18.6453 
6 1 1 0.579735 17.8976 -18.3625 
7 1 1 0.332464 17.1429 -18.9081 
8 1 1 -0.248045 16.5888 -18.4024 
9 1 1 -0.319956 15.7152 -18.0581 
10 1 1 -0.364156 14.7744 -18.0374 
11 1 1 -0.113254 14.0555 -17.4846 
12 1 1 0.70953 13.5752 -17.6537 
13 1 1 1.09234 13.8562 -18.4526 
14 1 1 1.28752 14.4929 -19.2018 
15 1 1 1.15719 15.4029 -18.9082 
16 1 1 1.76717 16.1234 -18.6114 
17 1 1 2.6839 15.8175 -18.6014 
18 1 1 2.68726 14.8441 -18.5286 
19 1 1 2.48941 14.2151 -17.7863 
20 1 1 2.34111 13.9554 -16.879 
21 1 1 1.43796 13.9008 -16.4117 
22 1 1 0.867916 14.6471 -16.4559 
23 1 1 0.0211562 15.1563 -16.5848 
24 1 1 -0.381089 15.9832 -16.3628 
25 1 1 -0.318438 16.9427 -16.6285 
26 1 1 0.042387 17.4399 -15.8464 
27 1 1 0.885553 16.9657 -15.7844 
28 1 1 1.54626 16.653 -16.3726 
29 1 1 1.28857 16.0443 -17.077 
30 1 1 2.13688 15.5936 -17.089 
ITEM: TIMESTEP
8000
ITEM: NUMBER OF ATOMS
30
ITEM: BOX BOUNDS pp pp pp
-5.7758099999999999e+00 5.7758099999999999e+00
-5.7758099999999999e+00 5.7758099999999999e+00
-5.7758099999999999e+00 5.7758099999999999e+00
ITEM: ATOMS id mol type xu yu zu 
1 1 1 -1.33283 20.6041 -18.1606 
2 1 1 -0.737097 20.663 -17.4456 
3 1 1 -0.264639 19.8454 -17.4915 
4 1 1 0.106606 19.1226 -17.9735 
5 1 1 0.343629 18.7017 -18.8429 
6 1 1 0.74114 17.8494 -18.7636 
7 1 1 0.652808 16.9345 -18.9048 
8 1 1 0.175897 16.195 -18.4771 
9 1 1 -0.263953 15.3307 -18.3671 
10 1 1 -0.503985 14.4909 -18.0001 
11 1 1 0.049477 14.1084 -17.3454 
12 1 1 0.799032 13.5493 -17.645 
13 1 1 1.06009 14.1649 -18.2865 
14 1 1 1.48706 14.4628 -19.0663 
15 1 1 1.84088 15.3328 -19.0494 
16 1 1 2.51511 15.9384 -18.8936 
17 1 1 3.04749 15.6447 -18.1675 
18 1 1 3.18485 14.7154 -18.3789 
19 1 1 2.66148 14.271 -17.6722 
20 1 1 2.46066 14.4284 -16.7503 
21 1 1 1.54666 14.2333 -16.4244 
22 1 1 0.896648 14.9657 -16.4597 
23 1 1 0.217643 15.2904 -15.9005 
24 1 1 -0.442786 15.9211 -16.3211 
25 1 1 -0.312358 16.5527 -16.9987 
26 1 1 0.0727732 17.2999 -16.5891 
27 1 1 0.953452 17.2529 -16.1739 
28 1 1 1.38495 16.6461 -16.7307 
29 1 1 1.36142 16.0542 -17.4993 
30 1 1 2.12922 15.8646 -16.9377 
ITEM: TIMESTEP
9000
ITEM: NUMBER OF ATOMS
30
ITEM: BOX BOUNDS pp pp pp
-5.7758099999999999e+00 5.7758099999999999e+00
-5.7758099999999999e+00 5.7758099999999999e+00
-5.7758099999999999e+00 5.7758099999999999e+00
ITEM: ATOMS id mol type xu yu zu 
1 1 1 -1.13564 21.1008 -17.8895 
2 1 1 -0.685147 20.4131 -17.4269 
3 1 1 -0.706455 19.4394 -17.3862 
4 1 1 -0.213801 18.9206 -18.0218 
5 1 1 -0.251161 18.4486 -18.8392 
6 1 1 0.567111 17.9821 -18.7872 
7 1 1 0.560262 17.0821 -19.1626 
8 1 1 0.375075 16.1091 -19.0368 
9 1 1 -0.0311875 15.2483 -18.7126 
10 1 1 -0.446179 14.3885 -18.5844 
11 1 1 -0.404722 14.017 -17.6671 
12 1 1 0.419797 13.5393 -17.6631 
13 1 1 1.02042 14.2544 -18.0046 
14 1 1 1.13004 14.2355 -18.9167 
15 1 1 1.52368 15.085 -19.0893 
16 1 1 1.96792 15.9327 -18.9151 
17 1 1 2.90026 15.7971 -18.7994 
18 1 1 3.04531 14.883 -18.7119 
19 1 1 2.84229 14.4413 -17.8812 
20 1 1 2.43408 14.2644 -16.9868 
21 1 1 1.74594 14.0607 -16.3124 
22 1 1 0.830774 14.5041 -16.4866 
23 1 1 0.00731418 14.9839 -16.3381 
24 1 1 -0.464849 15.4572 -17.0489 
25 1 1 -0.346887 16.4023 -17.0771 
26 1 1 0.052946 17.2367 -17.0867 
27 1 1 0.917041 17.5005 -16.6765 
28 1 1 1.59828 16.8875 -16.9832 
29 1 1 1.59568 15.9708 -17.3432 
30 1 1 2.54832 15.8144 -17.2577 
ITEM: TIMESTEP
10000
ITEM: NUMBER OF ATOMS
30
ITEM: BOX BOUNDS pp pp pp
-5.7758099999999999e+00 5.7758099999999999e+00
-5.7758099999999999e+00 5.7758099999999999e+00
-5.7758099999999999e+00 5.7758099999999999e+00
ITEM: ATOMS id mol type xu yu zu 
1 1 1 -1.28605 21.2242 -17.6087 
2 1 1 -0.831557 20.3614 -17.4294 
3 1 1 -0.439005 19.7494 -18.0934 
4 1 1 -0.343873 18.7788 -18.4152 
5 1 1 0.0198396 18.1695 -19.0474 
6 1 1 0.459176 17.2913 -18.9681 
7 1 1 0.414424 16.3369 -19.161 
8 1 1 -0.250023 15.7779 -18.9043 
9 1 1 -0.0241912 14.8317 -18.6968 
10 1 1 -0.755299 14.52 -18.1984 
11 1 1 -0.562254 13.9273 -17.4915 
12 1 1 0.2841 13.5434 -17.7071 
13 1 1 0.921801 14.2175 -17.7125 
14 1 1 1.54432 14.1368 -18.4664 
15 1 1 1.52211 15.0128 -18.8679 
16 1 1 1.82025 15.8496 -18.5378 
17 1 1 2.72408 15.5578 -18.6607 
18 1 1 2.97167 14.8094 -18.1814 
19 1 1 2.85517 14.3333 -17.3378 
20 1 1 2.3444 14.2844 -16.5606 
21 1 1 1.5499 14.1116 -16.1275 
22 1 1 0.650188 14.2411 -16.4416 
23 1 1 -0.00504201 14.9261 -16.4794 
24 1 1 0.0580094 15.3753 -17.2696 
25 1 1 -0.172953 16.2774 -16.9319 
26 1 1 0.423966 16.9665 -16.6726 
27 1 1 1.19252 16.9521 -17.2608 
28 1 1 2.18415 16.8294 -17.1798 
29 1 1 2.19642 15.9593 -16.7272 
30 1 1 3.11786 15.6759 -16.9009 
ITEM: TIMESTEP
11000
ITEM: NUMBER OF ATOMS
30
ITEM: BOX BOUNDS pp pp pp
-5.7758099999999999e+00 5.7758099999999999e+00
-5.7758099999999999e+00 5.7758099999999999e+00
-5.7758099999999999e+00 5.7758099999999999e+00
ITEM: ATOMS id mol type xu yu zu 
1 1 1 -1.02374 21.0333 -17.4101 
2 1 1 -0.719432 20.1313 -17.6232 
3 1 1 -0.0826752 19.5639 -18.0709 
4 1 1 -0.51119 19.0869 -18.7769 
5 1 1 -0.539513 18.1426 -19.0411 
6 1 1 -0.139087 17.2712 -19.0527 
7 1 1 0.331977 16.4519 -18.7208 
8 1 1 -0.15292 15.6191 -18.6147 
9 1 1 -0.0251388 14.6524 -18.7001 
10 1 1 -0.633695 14.0995 -18.1776 
11 1 1 -0.158544 13.7436 -17.398 
12 1 1 0.726636 13.5372 -17.6901 
13 1 1 1.10096 14.4168 -17.7412 
14 1 1 1.66054 14.187 -18.4902 
15 1 1 1.59909 15.0961 -18.7527 
16 1 1 2.20647 15.7916 -18.9626 
17 1 1 2.86094 15.9909 -18.3244 
18 1 1 3.20085 15.186 -18.0205 
19 1 1 2.66319 14.7845 -17.3626 
20 1 1 2.27991 14.549 -16.4642 
21 1 1 1.59497 14.4547 -15.8003 
22 1 1 0.667691 14.5265 -16.1142 
23 1 1 -0.0500077 15.1551 -16.0118 
24 1 1 -0.0564504 15.6154 -16.8612 
25 1 1 -0.159424 16.509 -16.6048 
26 1 1 0.405047 17.2629 -16.6593 
27 1 1 1.0979 16.959 -17.2191 
28 1 1 2.05549 16.9681 -17.161 
29 1 1 2.44644 16.2396 -16.6811 
30 1 1 3.27733 15.7621 -16.4392 
ITEM: TIMESTEP
12000
ITEM: NUMBER OF ATOMS
30
ITEM: BOX BOUNDS pp pp pp
-5.7758099999999999e+00 5.7758099999999999e+00
-5.7758099999999999e+00 5.7758099999999999e+00
-5.7758099999999999e+00 5.7758099999999999e+00
ITEM: ATOMS id mol type xu yu zu 
1 1 1 -1.02341 20.7696 -17.3686 
2 1 1 -0.544893 20.0398 -17.835 
3 1 1 -0.414654 19.1816 -18.3169 
4 1 1 -0.818958 18.9217 -19.1809 
5 1 1 -0.394831 18.0643 -19.1721 
6 1 1 -0.55037 17.0824 -19.1948 
7 1 1 0.0701606 16.4888 -18.7321 
8 1 1 -0.193944 15.5992 -18.487 
9 1 1 0.0123959 14.6764 -18.2904 
10 1 1 -0.612435 14.0163 -17.9152 
11 1 1 -0.072974 13.4026 -17.291 
12 1 1 0.639646 13.2434 -17.861 
13 1 1 1.43252 13.7593 -17.6929 
14 1 1 1.50203 14.4134 -18.3799 
15 1 1 1.53584 14.7484 -19.2409 
16 1 1 1.79794 15.6424 -19.4833 
17 1 1 2.2714 15.8528 -18.6448 
18 1 1 2.78681 15.2696 -18.1393 
19 1 1 2.71389 14.9275 -17.2759 
20 1 1 2.39009 14.6079 -16.4814 
21 1 1 1.82313 14.3931 -15.7318 
22 1 1 0.887199 14.4256 -15.5216 
23 1 1 0.587559 15.1614 -16.0762 
24 1 1 0.107704 15.411 -16.8895 
25 1 1 -0.554483 16.0075 -16.6659 
26 1 1 -0.134103 16.7623 -17.0897 
27 1 1 0.754545 16.8154 -17.4853 
28 1 1 1.63586 17.0154 -17.1377 
29 1 1 2.4611 16.7128 -16.7435 
30 1 1 3.04518 16.5307 -15.9586 
ITEM: TIMESTEP
13000
ITEM: NUMBER OF ATOMS
30
ITEM: BOX BOUNDS pp pp pp
-5.7758099999999999e+00 5.7758099999999999e+00
-5.7758099999999999e+00 5.7758099999999999e+00
-5.7758099999999999e+00 5.7758099999999999e+00
ITEM: ATOMS id mol type xu yu zu 
1 1 1 -0.826198 20.379 -18.1873 
2 1 1 -0.365483 19.9573 -18.8768 
3 1 1 0.218471 19.3158 -19.2335 
4 1 1 -0.320627 18.8577 -19.9542 
5 1 1 -0.0505446 17.9836 -19.6585 
6 1 1 -0.732233 17.3746 -19.5278 
7 1 1 -0.42786 16.4981 -19.1453 
8 1 1 -0.740002 15.6385 -18.9511 
9 1 1 -0.22717 14.8745 -18.7184 
10 1 1 -0.598075 14.3983 -17.9674 
11 1 1 -0.211938 13.5936 -17.5184 
12 1 1 0.638083 13.1589 -17.3376 
13 1 1 1.2984 13.804 -17.6164 
14 1 1 1.03893 14.3694 -18.3695 
15 1 1 1.44185 14.4983 -19.2231 
16 1 1 2.12991 15.1018 -19.5894 
17 1 1 2.46949 15.7189 -18.9973 
18 1 1 2.79673 15.4066 -18.1313 
19 1 1 2.50948 15.1837 -17.2519 
20 1 1 2.35931 14.8934 -16.3351 
21 1 1 1.65998 14.5273 -15.7501 
22 1 1 0.742753 14.3066 -15.5486 
23 1 1 0.249423 14.7354 -16.2222 
24 1 1 0.440046 15.1954 -17.0404 
25 1 1 -0.317344 15.7682 -17.0589 
26 1 1 -0.0395145 16.6116 -17.4855 
27 1 1 0.957198 16.5724 -17.4536 
28 1 1 1.58104 16.8381 -16.741 
29 1 1 2.49625 16.8449 -16.5554 
30 1 1 3.21408 16.7587 -15.9234 
ITEM: TIMESTEP
14000
ITEM: NUMBER OF ATOMS
30
ITEM: BOX BOUNDS pp pp pp
-5.7758099999999999e+00 5.7758099999999999e+00
-5.7758099999999999e+00 5.7758099999999999e+00
-5.7758099999999999e+00 5.7758099999999999e+00
ITEM: ATOMS id mol type xu yu zu 
1 1 1 -0.624316 20.4725 -18.5342 
2 1 1 -0.212195 20.3254 -19.3806 
3 1 1 -0.286011 19.376 -19.5872 
4 1 1 -0.491382 18.5645 -20.099 
5 1 1 -0.15518 17.6933 -19.9081 
6 1 1 -0.374336 16.849 -19.5087 
7 1 1 -0.592821 16.2436 -18.7956 
8 1 1 -0.940911 15.4987 -18.347 
9 1 1 -0.469237 14.6906 -18.1606 
10 1 1 -0.531523 13.8642 -17.671 
11 1 1 -0.334907 12.989 -17.3133 
12 1 1 0.581855 12.9176 -17.6811 
13 1 1 1.32517 13.4969 -17.8985 
14 1 1 0.914627 14.3815 -18.2232 
15 1 1 1.5493 14.473 -18.9457 
16 1 1 1.93406 15.1298 -19.5254 
17 1 1 2.51613 15.8246 -19.0842 
18 1 1 2.41803 15.5724 -18.1545 
19 1 1 2.41644 15.5024 -17.1985 
20 1 1 1.8169 15.1067 -16.5594 
21 1 1 1.91961 14.5353 -15.8047 
22 1 1 1.06525 14.1211 -15.5732 
23 1 1 0.421819 14.3673 -16.2482 
24 1 1 0.293499 15.142 -16.8062 
25 1 1 -0.516093 15.6915 -16.706 
26 1 1 -0.0405815 16.4354 -17.1372 
27 1 1 0.808003 16.7677 -16.7605 
28 1 1 1.59534 16.5935 -16.2244 
29 1 1 2.30308 17.0838 -16.5181 
30 1 1 3.1356 17.4997 -16.4933 
ITEM: TIMESTEP
15000
ITEM: NUMBER OF ATOMS
30
ITEM: BOX BOUNDS pp pp pp
-5.7758099999999999e+00 5.7758099999999999e+00
-5.7758099999999999e+00 5.7758099999999999e+00
-5.7758099999999999e+00 5.7758099999999999e+00
ITEM: ATOMS id mol type xu yu zu 
1 1 1 -1.46114 20.9031 -18.9911 
2 1 1 -1.00263 20.0893 -19.2861 
3 1 1 -0.696059 19.2601 -19.6464 
4 1 1 -0.191705 18.4805 -19.7191 
5 1 1 -0.148939 17.6094 -20.0156 
6 1 1 0.0266747 16.8016 -19.4554 
7 1 1 -0.171301 16.0104 -18.9092 
8 1 1 -0.649829 15.3654 -18.3184 
9 1 1 -0.273766 14.4608 -18.3579 
10 1 1 -0.507897 13.7057 -17.7888 
11 1 1 -0.250579 12.833 -17.5669 
12 1 1 0.447341 12.5632 -18.1177 
13 1 1 1.20221 13.1391 -17.9622 
14 1 1 1.082 14.111 -17.9345 
15 1 1 1.85719 14.2701 -18.484 
16 1 1 1.77832 14.9439 -19.1637 
17 1 1 2.24912 15.7427 -18.8748 
18 1 1 2.8321 15.6005 -18.1103 
19 1 1 2.83566 15.6166 -17.178 
20 1 1 2.34208 15.0776 -16.4522 
21 1 1 2.14416 14.1551 -16.2977 
22 1 1 1.16422 14.1599 -16.3411 
23 1 1 0.255039 14.5011 -16.3854 
24 1 1 0.0711919 15.2538 -16.9866 
25 1 1 -0.406303 16.108 -17.1365 
26 1 1 0.154347 17.0071 -17.1671 
27 1 1 0.956871 16.6155 -16.8993 
28 1 1 1.31121 16.4623 -15.9944 
29 1 1 2.26884 16.5467 -16.0439 
30 1 1 3.15739 16.3877 -15.6542 
ITEM: TIMESTEP
16000
ITEM: NUMBER OF ATOMS
30
ITEM: BOX BOUNDS pp pp pp
-5.7758099999999999e+00 5.7758099999999999e+00
-5.7758099999999999e+00 5.7758099999999999e+00
-5.7758099999999999e+00 5.7758099999999999e+00
ITEM: ATOMS id mol type xu yu zu 
1 1 1 -1.24893 20.555 -19.3778 
2 1 1 -0.861811 19.7058 -19.1373 
3 1 1 -1.26607 18.8398 -19.2643 
4 1 1 -0.862973 18.1612 -19.7933 
5 1 1 -0.092289 17.7329 -20.1527 
6 1 1 -0.218575 16.8935 -19.7292 
7 1 1 -0.267926 15.9782 -19.4409 
8 1 1 -0.607331 15.7573 -18.5966 
9 1 1 -0.365033 14.8241 -18.5215 
10 1 1 -0.763456 13.9912 -18.1164 
11 1 1 -0.348167 13.2937 -17.6432 
12 1 1 0.239912 12.7152 -18.1968 
13 1 1 0.706979 13.4169 -17.7879 
14 1 1 0.861463 14.341 -17.9755 
15 1 1 1.59566 14.4525 -18.6168 
16 1 1 1.52116 15.2918 -19.0792 
17 1 1 2.30701 15.8392 -18.7713 
18 1 1 2.81868 15.2768 -18.172 
19 1 1 3.40195 15.4621 -17.4126 
20 1 1 2.74714 15.5564 -16.683 
21 1 1 2.04197 15.0854 -16.2199 
22 1 1 1.1004 15.0195 -15.9939 
23 1 1 0.306803 14.7794 -16.4155 
24 1 1 -0.329355 15.3711 -16.8401 
25 1 1 -0.693704 16.2947 -17.0053 
26 1 1 0.122566 16.708 -17.3399 
27 1 1 0.769634 16.7348 -16.6445 
28 1 1 1.47828 16.6165 -16.0145 
29 1 1 2.31771 17.0183 -15.8603 
30 1 1 3.15501 17.1624 -16.2519 
ITEM: TIMESTEP
17000
ITEM: NUMBER OF ATOMS
30
ITEM: BOX BOUNDS pp pp pp
-5.7758099999999999e+00 5.7758099999999999e+00
-5.7758099999999999e+00 5.7758099999999999e+00
-5.7758099999999999e+00 5.7758099999999999e+00
ITEM: ATOMS id mol type xu yu zu 
1 1 1 -0.685502 20.4913 -19.3953 
2 1 1 -0.688863 19.5719 -19.1844 
3 1 1 -1.29078 18.8459 -19.1941 
4 1 1 -1.03986 18.2273 -19.9255 
5 1 1 -0.236479 17.8746 -19.6281 
6 1 1 -0.414882 16.9708 -19.2794 
7 1 1 -0.273365 16.0718 -19.6533 
8 1 1 -0.0554283 15.5506 -18.8842 
9 1 1 -0.115368 14.6057 -18.6423 
10 1 1 -0.256921 14.1266 -17.8607 
11 1 1 -0.065336 13.2276 -18.1305 
12 1 1 0.828441 12.9199 -18.0776 
13 1 1 1.19747 13.6266 -17.5545 
14 1 1 1.35431 14.4342 -18.0088 
15 1 1 1.78132 14.6032 -18.8753 
16 1 1 2.15878 15.3613 -19.3839 
17 1 1 2.27915 16.0259 -18.7092 
18 1 1 2.58593 15.6066 -17.8806 
19 1 1 2.58013 15.8605 -16.9576 
20 1 1 2.49851 15.3298 -16.1626 
21 1 1 1.79897 14.7241 -15.8474 
22 1 1 0.821057 14.7824 -15.7283 
23 1 1 0.560007 14.7721 -16.6243 
24 1 1 -0.0573605 15.438 -16.8915 
25 1 1 -0.472321 16.2955 -16.7173 
26 1 1 0.153042 17.0043 -16.7039 
27 1 1 0.855087 16.7014 -16.148 
28 1 1 1.81147 16.7512 -16.0061 
29 1 1 2.74806 16.8722 -15.9487 
30 1 1 3.58225 17.0059 -16.4866 
ITEM: TIMESTEP
18000
ITEM: NUMBER OF ATOMS
30
ITEM: BOX BOUNDS pp pp pp
-5.7758099999999999e+00 5.7758099999999999e+00
-5.7758099999999999e+00 5.7758099999999999e+00
-5.7758099999999999e+00 5.7758099999999999e+00
ITEM: ATOMS id mol type xu yu zu 
1 1 1 -1.01763 20.6777 -19.2018 
2 1 1 -0.697932 19.8205 -19.0539 
3 1 1 -0.993135 18.927 -19.2883 
4 1 1 -0.708814 18.616 -20.1372 
5 1 1 -0.751654 17.6283 -20.3028 
6 1 1 -0.547183 17.2312 -19.4766 
7 1 1 -0.324368 16.2646 -19.7246 
8 1 1 -0.541318 15.6671 -19.0096 
9 1 1 -0.401507 14.8202 -18.4647 
10 1 1 -0.735461 14.165 -17.8058 
11 1 1 -0.234415 13.3334 -17.8752 
12 1 1 0.723062 13.1915 -18.0373 
13 1 1 1.4836 13.7213 -17.6681 
14 1 1 1.20906 14.5381 -17.9471 
15 1 1 1.71021 14.7802 -18.7633 
16 1 1 1.94853 15.4894 -19.3819 
17 1 1 2.3931 15.9312 -18.6565 
18 1 1 2.51545 15.5316 -17.7587 
19 1 1 2.58817 15.8286 -16.839 
20 1 1 2.33866 15.0147 -16.3678 
21 1 1 1.45045 14.592 -16.375 
22 1 1 0.70338 15.1888 -16.2479 
23 1 1 0.121787 14.5755 -16.6369 
24 1 1 -0.501648 15.1969 -16.9359 
25 1 1 -0.4719 16.1253 -17.1003 
26 1 1 -0.226824 16.6221 -16.2159 
27 1 1 0.541541 16.6111 -15.7136 
28 1 1 1.4522 16.808 -16.0259 
29 1 1 2.24786 17.0016 -16.4303 
30 1 1 3.20789 17.1969 -16.3067 
ITEM: TIMESTEP
19000
ITEM: NUMBER OF ATOMS
30
ITEM: BOX BOUNDS pp pp pp
-5.7758099999999999e+00 5.7758099999999999e+00
-5.7758099999999999e+00 5.7758099999999999e+00
-5.7758099999999999e+00 5.7758099999999999e+00
ITEM: ATOMS id mol type xu yu zu 
1 1 1 -0.348085 20.5674 -19.2518 
2 1 1 -0.57085 19.7166 -19.5978 
3 1 1 -1.13167 18.9992 -19.2932 
4 1 1 -1.10633 18.4291 -20.0602 
5 1 1 -0.860637 17.4862 -20.0746 
6 1 1 -0.614003 16.9081 -19.3581 
7 1 1 -0.285803 16.0412 -19.6296 
8 1 1 -0.523015 15.1106 -19.3335 
9 1 1 -0.236371 15.0114 -18.3914 
10 1 1 -0.400599 14.1527 -18.0386 
11 1 1 -0.012421 13.2647 -17.8276 
12 1 1 0.839047 12.8581 -17.9489 
13 1 1 1.50334 13.4802 -17.6542 
14 1 1 1.17708 14.2918 -18.1152 
15 1 1 1.69313 14.7188 -18.7816 
16 1 1 2.00153 15.6541 -19.0738 
17 1 1 2.71357 15.7165 -18.4309 
18 1 1 2.93151 15.3987 -17.5205 
19 1 1 2.59189 14.8984 -16.7681 
20 1 1 2.16303 14.1685 -16.2993 
21 1 1 1.24225 14.3303 -16.1641 
22 1 1 0.589546 15.0389 -16.1902 
23 1 1 -0.248103 14.6391 -16.4603 
24 1 1 -0.797551 15.2285 -16.9474 
25 1 1 -0.50738 16.1409 -17.2629 
26 1 1 -0.167535 16.8715 -16.7717 
27 1 1 0.274889 16.5894 -15.9587 
28 1 1 1.21262 16.7685 -16.0096 
29 1 1 1.97422 17.0632 -16.467 
30 1 1 2.92298 17.2177 -16.6987 
ITEM: TIMESTEP
20000
ITEM: NUMBER OF ATOMS
30
ITEM: BOX BOUNDS pp pp pp
-5.7758099999999999e+00 5.7758099999999999e+00
-5.7758099999999999e+00 5.7758099999999999e+00
-5.7758099999999999e+00 5.7758099999999999e+00
ITEM: ATOMS id mol type xu yu zu 
1 1 1 -0.0524995 20.6172 -18.867 
2 1 1 -0.478743 19.9151 -19.3577 
3 1 1 -0.655461 19.0164 -19.0725 
4 1 1 -0.64461 18.4874 -19.8717 
5 1 1 -0.665478 17.5083 -19.6779 
6 1 1 -0.36055 16.9097 -18.9918 
7 1 1 -0.499033 15.9707 -18.9102 
8 1 1 -0.669516 15.0953 -19.2203 
9 1 1 -0.412265 14.5349 -18.4829 
10 1 1 -0.677547 13.8048 -17.9275 
11 1 1 -0.311909 13.0837 -17.4026 
12 1 1 0.583582 12.9038 -17.1289 
13 1 1 1.11207 13.1748 -17.9467 
14 1 1 1.19784 14.0792 -18.2818 
15 1 1 1.37395 14.9972 -18.5481 
16 1 1 1.75785 15.8745 -18.5034 
17 1 1 1.89877 15.6944 -17.5809 
18 1 1 2.6524 15.3642 -17.1155 
19 1 1 2.78684 14.5266 -16.6329 
20 1 1 2.2606 13.7883 -16.8846 
21 1 1 1.42173 14.0641 -16.5042 
22 1 1 0.918383 14.9046 -16.4835 
23 1 1 0.0158538 14.4913 -16.2296 
24 1 1 -0.496874 14.8358 -16.9727 
25 1 1 -0.506578 15.7355 -16.7674 
26 1 1 -0.33998 16.4844 -16.1905 
27 1 1 0.39109 16.7925 -15.637 
28 1 1 1.27792 17.1832 -15.6792 
29 1 1 2.18834 17.0124 -15.9986 
30 1 1 2.37475 17.172 -16.97 
ITEM: TIMESTEP
21000
ITEM: NUMBER OF ATOMS
30
ITEM: BOX BOUNDS pp pp pp
-5.7758099999999999e+00 5.7758099999999999e+00
-5.7758099999999999e+00 5.7758099999999999e+00
-5.7758099999999999e+00 5.7758099999999999e+00
ITEM: ATOMS id mol type xu yu zu 
1 1 1 -0.454307 20.5155 -19.3894 
2 1 1 -0.330908 19.5607 -19.4297 
3 1 1 -1.05949 18.9944 -19.5189 
4 1 1 -1.02301 18.1064 -19.9052 
5 1 1 -0.747618 17.4527 -19.3081 
6 1 1 -1.00025 16.9378 -18.5392 
7 1 1 -0.888087 16.0259 -18.6181 
8 1 1 -0.12764 15.4133 -18.898 
9 1 1 -0.321617 14.4804 -18.5623 
10 1 1 -0.531271 13.5808 -18.268 
11 1 1 -0.471664 13.2328 -17.3729 
12 1 1 0.43688 13.1329 -17.1999 
13 1 1 0.934489 13.7074 -17.8142 
14 1 1 1.45948 14.4641 -18.137 
15 1 1 1.58642 15.2619 -18.5823 
16 1 1 2.40931 15.7697 -18.3816 
17 1 1 2.29022 16.0546 -17.4196 
18 1 1 2.51935 15.2703 -16.9274 
19 1 1 2.46398 14.2961 -17.1382 
20 1 1 1.83876 13.7332 -16.6546 
21 1 1 1.408 14.4121 -16.1666 
22 1 1 0.824428 15.168 -16.3579 
23 1 1 0.0482211 14.6204 -16.462 
24 1 1 -0.661796 14.8147 -17.0657 
25 1 1 -0.678094 15.7751 -16.8904 
26 1 1 -0.133511 16.5384 -16.5924 
27 1 1 0.555752 17.1277 -16.3699 
28 1 1 1.24091 17.3662 -15.7428 
29 1 1 2.12342 17.0734 -16.0048 
30 1 1 2.13213 17.4017 -16.898 
ITEM: TIMESTEP
22000
ITEM: NUMBER OF ATOMS
30
ITEM: BOX BOUNDS pp pp pp
-5.7758099999999999e+00 5.7758099999999999e+00
-5.7758099999999999e+00 5.7758099999999999e+00
-5.7758099999999999e+00 5.7758099999999999e+00
ITEM: ATOMS id mol type xu yu zu 
1 1 1 -0.335736 20.4227 -18.9157 
2 1 1 -0.576922 19.7836 -19.598 
3 1 1 -0.956943 18.9521 -19.3079 
4 1 1 -0.879516 18.0182 -19.1395 
5 1 1 -0.34291 17.2612 -18.9878 
6 1 1 -0.893324 16.8165 -18.3123 
7 1 1 -0.282158 16.0699 -18.3232 
8 1 1 -0.0223489 15.3785 -18.9058 
9 1 1 -0.513088 14.5582 -18.8609 
10 1 1 -0.483801 13.9227 -18.139 
11 1 1 -0.234441 13.2383 -17.4671 
12 1 1 0.718827 13.3833 -17.3854 
13 1 1 0.997474 13.7606 -18.2397 
14 1 1 1.7521 14.2792 -18.483 
15 1 1 1.54751 15.2236 -18.313 
16 1 1 2.32547 15.7706 -18.2993 
17 1 1 2.7163 15.9045 -17.4329 
18 1 1 2.93008 14.968 -17.2936 
19 1 1 2.41815 14.3003 -16.8582 
20 1 1 2.11584 13.6435 -16.2486 
21 1 1 1.5444 14.3281 -15.8376 
22 1 1 0.737613 14.5955 -16.258 
23 1 1 0.0426178 14.6569 -16.9099 
24 1 1 -0.759293 15.1469 -17.1837 
25 1 1 -0.674443 16.0394 -16.854 
26 1 1 -0.418752 16.339 -15.9153 
27 1 1 0.370804 16.8495 -16.2146 
28 1 1 1.18737 16.884 -15.7597 
29 1 1 1.91224 16.8707 -16.4056 
30 1 1 2.16614 17.2118 -17.2636 
ITEM: TIMESTEP
23000
ITEM: NUMBER OF ATOMS
30
ITEM: BOX BOUNDS pp pp pp
-5.7758099999999999e+00 5.7758099999999999e+00
-5.7758099999999999e+00 5.7758099999999999e+00
-5.7758099999999999e+00 5.7758099999999999e+00
ITEM: ATOMS id mol type xu yu zu 
1 1 1 0.0334594 20.3864 -18.8502 
2 1 1 -0.510799 19.838 -19.4262 
3 1 1 -0.743345 18.9206 -19.4981 
4 1 1 -0.613306 18.0057 -19.3617 
5 1 1 -0.0933241 17.4306 -18.807 
6 1 1 -0.385411 16.9269 -18.0733 
7 1 1 -0.0423324 16.0391 -18.2876 
8 1 1 -0.269671 15.17 -18.6676 
9 1 1 -0.877427 14.5116 -18.4462 
10 1 1 -0.939102 13.7114 -17.8676 
11 1 1 -0.203721 13.3406 -17.3185 
12 1 1 0.601725 13.1022 -17.7648 
13 1 1 1.47622 13.3341 -18.181 
14 1 1 1.44161 14.3079 -18.306 
15 1 1 1.35939 15.2445 -18.3563 
16 1 1 2.27268 15.467 -18.2999 
17 1 1 3.06517 15.4429 -17.7405 
18 1 1 3.25125 14.4468 -17.6223 
19 1 1 2.47051 13.9491 -17.1706 
20 1 1 2.14881 14.4614 -16.4147 
21 1 1 1.41615 14.8384 -15.9155 
22 1 1 0.601443 15.0597 -16.385 
23 1 1 0.0234148 14.7607 -17.121 
24 1 1 -0.738722 15.3139 -16.8842 
25 1 1 -0.834998 16.1357 -16.4485 
26 1 1 -0.301281 16.8417 -16.0068 
27 1 1 0.584094 16.5947 -16.311 
28 1 1 1.32156 16.7955 -15.6946 
29 1 1 2.09297 16.8664 -16.249 
30 1 1 2.43166 17.4 -16.9581 
ITEM: TIMESTEP
24000