ITEM: TIMESTEP
0
ITEM: NUMBER OF ATOMS
30
ITEM: BOX BOUNDS pp pp pp
-5.7758099999999999e+00 5.7758099999999999e+00
-5.7758099999999999e+00 5.7758099999999999e+00
-5.7758099999999999e+00 5.7758099999999999e+00
ITEM: ATOMS id mol type x y z 
1 1 1 -0.859554 -2.55345 5.67583 
2 1 1 0.0641897 -2.2254 5.70221 
3 1 1 0.883728 -2.66278 5.4442 
4 1 1 0.897487 -3.63199 5.19294 
5 1 1 0.84232 -3.63497 4.19411 
6 1 1 0.537039 -4.44969 3.88078 
7 1 1 0.650844 -5.14175 4.56543 
8 1 1 1.00774 5.65595 4.13596 
9 1 1 0.447028 4.82021 4.01281 
10 1 1 0.000505717 4.83026 4.84632 
11 1 1 -0.174602 3.85166 4.89851 
12 1 1 0.400115 3.17766 5.24609 
13 1 1 0.9447 3.1278 4.46203 
14 1 1 1.82963 3.51008 4.44071 
15 1 1 2.30248 4.38438 4.34692 
16 1 1 3.20671 4.22774 4.54266 
17 1 1 3.24886 4.68123 5.37193 
18 1 1 2.85575 4.0531 -5.57685 
19 1 1 2.50997 3.20286 5.63288 
20 1 1 1.75233 2.65776 -5.74574 
21 1 1 1.25153 2.58983 -4.90251 
22 1 1 0.823183 3.39072 -4.78954 
23 1 1 -0.111439 3.40813 -4.97575 
24 1 1 -0.261952 4.3243 -4.675 
25 1 1 -0.175952 5.25445 -4.92867 
26 1 1 0.173656 -5.72946 -4.25399 
27 1 1 0.670317 5.2593 -3.69048 
28 1 1 1.4381 5.43739 -4.2929 
29 1 1 1.85765 5.10282 -5.12411 
30 1 1 1.37282 5.63327 5.74415 
ITEM: TIMESTEP
1000
ITEM: NUMBER OF ATOMS
30
ITEM: BOX BOUNDS pp pp pp
-5.7758099999999999e+00 5.7758099999999999e+00
-5.7758099999999999e+00 5.7758099999999999e+00
-5.7758099999999999e+00 5.7758099999999999e+00
ITEM: ATOMS id mol type x y z 
1 1 1 -0.624978 -2.60081 -5.59647 
2 1 1 0.208413 -2.39473 5.4962 
3 1 1 0.776333 -2.74362 4.80708 
4 1 1 0.969833 -3.67254 4.86626 
5 1 1 0.969385 -4.10225 3.96977 
6 1 1 0.379183 -4.81829 4.18964 
7 1 1 0.811302 -5.47825 4.68908 
8 1 1 0.642816 5.25867 4.19829 
9 1 1 0.230183 4.40387 4.01038 
10 1 1 -0.192761 4.17478 4.88255 
11 1 1 -0.303472 3.27399 5.12142 
12 1 1 0.534872 2.90287 4.98356 
13 1 1 0.856057 3.31354 4.18469 
14 1 1 1.42371 4.03192 4.56856 
15 1 1 2.17451 4.55748 4.3436 
16 1 1 2.84339 4.10338 4.87847 
17 1 1 3.21933 4.78311 5.41022 
18 1 1 2.9054 4.10049 -5.48201 
19 1 1 2.89616 3.1342 -5.63381 
20 1 1 2.02367 2.77924 -5.70186 
21 1 1 1.66659 2.48003 -4.86142 
22 1 1 1.04698 3.19435 -4.83131 
23 1 1 0.0697683 3.37003 -4.8419 
24 1 1 -0.0584885 4.2791 -4.67547 
25 1 1 -0.602077 4.98582 -4.38031 
26 1 1 -0.0723483 5.72942 -4.04764 
27 1 1 0.79773 5.3665 -3.78964 
28 1 1 1.65515 5.53803 -4.22569 
29 1 1 1.75776 5.16008 -5.13212 
30 1 1 0.991428 4.98127 -5.67907 
ITEM: TIMESTEP
2000
ITEM: NUMBER OF ATOMS
30
ITEM: BOX BOUNDS pp pp pp
-5.7758099999999999e+00 5.7758099999999999e+00
-5.7758099999999999e+00 5.7758099999999999e+00
-5.7758099999999999e+00 5.7758099999999999e+00
ITEM: ATOMS id mol type x y z 
1 1 1 -0.369319 -2.4877 -5.5962 
2 1 1 0.487311 -2.26643 5.67288 
3 1 1 0.943465 -3.057 5.34608 
4 1 1 1.51831 -3.79944 5.12655 
5 1 1 0.881314 -3.8409 4.41979 
6 1 1 0.274762 -4.62005 4.40846 
7 1 1 0.0783233 -5.54013 4.6791 
8 1 1 0.320232 5.24811 4.1646 
9 1 1 0.0160453 4.42675 3.81391 
10 1 1 -0.305578 3.96432 4.62427 
11 1 1 -0.178267 3.1059 5.1476 
12 1 1 0.747379 2.79785 5.03346 
13 1 1 1.34406 2.96299 4.29268 
14 1 1 1.67525 3.85245 4.55205 
15 1 1 1.81476 4.76429 4.42493 
16 1 1 2.80342 4.83974 4.47114 
17 1 1 3.08516 4.8602 5.37721 
18 1 1 2.94062 4.43981 -5.33322 
19 1 1 2.95189 3.53555 -5.45089 
20 1 1 2.25195 2.95609 -5.65003 
21 1 1 1.50628 2.57761 -5.17224 
22 1 1 0.777458 3.12842 -4.95666 
23 1 1 -0.13978 3.22294 -4.67745 
24 1 1 -0.423746 4.16021 -4.81054 
25 1 1 -0.436492 5.08366 -4.59142 
26 1 1 0.331939 5.62438 -4.4915 
27 1 1 1.06249 -5.78911 -3.8931 
28 1 1 1.9092 5.70335 -4.27496 
29 1 1 1.70824 5.3126 -5.17968 
30 1 1 1.16433 4.64275 -5.58515 
ITEM: TIMESTEP
3000
ITEM: NUMBER OF ATOMS
30
ITEM: BOX BOUNDS pp pp pp
-5.7758099999999999e+00 5.7758099999999999e+00
-5.7758099999999999e+00 5.7758099999999999e+00
-5.7758099999999999e+00 5.7758099999999999e+00
ITEM: ATOMS id mol type x y z 
1 1 1 -0.298163 -2.38528 -5.35691 
2 1 1 0.678355 -2.39876 -5.43675 
3 1 1 0.925819 -2.81921 5.30751 
4 1 1 1.10524 -3.46278 4.62995 
5 1 1 0.862437 -4.17386 4.04615 
6 1 1 0.48015 -5.04234 4.14597 
7 1 1 -0.1654 -5.62084 4.45152 
8 1 1 -0.234566 5.19234 3.84002 
9 1 1 0.106742 4.32736 3.80333 
10 1 1 -0.245076 3.94908 4.62294 
11 1 1 -0.106507 3.18426 5.16829 
12 1 1 0.783299 2.82353 5.1606 
13 1 1 1.11163 3.19138 4.33176 
14 1 1 1.71915 3.83274 4.65913 
15 1 1 1.6766 4.78841 4.46543 
16 1 1 2.58832 5.19104 4.57043 
17 1 1 3.07144 4.79184 5.28933 
18 1 1 3.07751 4.20453 -5.5236 
19 1 1 2.85249 3.27833 -5.74842 
20 1 1 1.98034 2.97164 -5.51815 
21 1 1 1.3588 3.14348 -4.85966 
22 1 1 0.406642 2.996 -4.90283 
23 1 1 -0.347203 3.51492 -5.02918 
24 1 1 -0.540895 4.34417 -5.49481 
25 1 1 -0.408512 5.09944 -4.93185 
26 1 1 -0.177 -5.622 -4.56291 
27 1 1 0.689182 -5.51491 -4.10555 
28 1 1 1.53667 5.56701 -4.30458 
29 1 1 1.26775 5.23145 -5.13787 
30 1 1 1.47462 4.4665 -5.648 
ITEM: TIMESTEP
4000
ITEM: NUMBER OF ATOMS
30
ITEM: BOX BOUNDS pp pp pp
-5.7758099999999999e+00 5.7758099999999999e+00
-5.7758099999999999e+00 5.7758099999999999e+00
-5.7758099999999999e+00 5.7758099999999999e+00
ITEM: ATOMS id mol type x y z 
1 1 1 -0.779147 -2.28021 -5.7654 
2 1 1 0.0105804 -2.75757 -5.70345 
3 1 1 0.574078 -3.4831 5.6364 
4 1 1 0.54803 -3.58766 4.68622 
5 1 1 0.706083 -4.50125 4.48192 
6 1 1 0.341137 -5.41069 4.67951 
7 1 1 -0.230446 5.4295 4.47356 
8 1 1 -0.365265 4.78665 3.79631 
9 1 1 0.0173446 3.92643 4.1216 
10 1 1 -0.379641 3.63869 4.9282 
11 1 1 -0.329318 2.66434 5.13852 
12 1 1 0.539702 2.38752 4.8791 
13 1 1 1.15267 3.08669 4.55339 
14 1 1 1.85243 3.64554 4.23553 
15 1 1 1.58962 4.52352 4.42687 
16 1 1 2.36523 4.92941 4.81739 
17 1 1 3.15677 4.39712 4.95056 
18 1 1 3.03638 3.851 -5.79736 
19 1 1 2.61557 3.06189 5.36907 
20 1 1 2.02681 2.81557 -5.43208 
21 1 1 1.12517 2.67064 -5.08135 
22 1 1 0.243913 2.83143 -4.70895 
23 1 1 -0.265623 3.59509 -4.40427 
24 1 1 -0.354391 4.07842 -5.21183 
25 1 1 -0.566882 5.014 -5.11072 
26 1 1 -0.643509 5.70677 -4.43389 
27 1 1 0.259956 -5.72695 -4.06902 
28 1 1 1.00181 5.42525 -4.58202 
29 1 1 0.943367 4.98588 -5.41562 
30 1 1 1.1624 4.10998 -5.16329 
ITEM: TIMESTEP
5000
ITEM: NUMBER OF ATOMS
30
ITEM: BOX BOUNDS pp pp pp
-5.7758099999999999e+00 5.7758099999999999e+00
-5.7758099999999999e+00 5.7758099999999999e+00
-5.7758099999999999e+00 5.7758099999999999e+00
ITEM: ATOMS id mol type x y z 
1 1 1 -1.23788 -2.11253 -5.57779 
2 1 1 -0.394911 -2.52099 -5.69945 
3 1 1 0.0978618 -3.23541 5.50389 
4 1 1 -0.235483 -3.91827 4.91113 
5 1 1 0.569868 -4.40905 4.74175 
6 1 1 0.385688 -5.35647 4.73261 
7 1 1 -0.324953 5.62509 4.99349 
8 1 1 -0.739544 4.82929 4.60636 
9 1 1 -0.126063 4.1048 4.64184 
10 1 1 -0.495636 3.54495 5.3417 
11 1 1 -0.280919 2.62002 5.51487 
12 1 1 0.592821 2.43969 5.17892 
13 1 1 1.09407 2.9557 4.5415 
14 1 1 1.26307 3.7025 3.92337 
15 1 1 1.5895 4.483 4.43038 
16 1 1 2.41742 4.67988 4.80391 
17 1 1 2.99688 3.88369 4.93231 
18 1 1 3.1019 3.10891 5.44572 
19 1 1 2.4413 2.43801 5.2084 
20 1 1 1.98708 2.2353 -5.52035 
21 1 1 1.31025 2.53629 -4.90369 
22 1 1 0.475748 2.89525 -4.5334 
23 1 1 0.190858 3.73222 -4.93588 
24 1 1 -0.609479 4.27048 -4.87524 
25 1 1 -0.672937 5.21259 -4.99447 
26 1 1 -0.419393 -5.71223 -4.3408 
27 1 1 0.435302 5.56738 -3.96161 
28 1 1 1.21914 5.36355 -4.4505 
29 1 1 1.1306 4.88247 -5.28163 
30 1 1 1.266 3.94735 -5.38184 
ITEM: TIMESTEP
6000
ITEM: NUMBER OF ATOMS
30
ITEM: BOX BOUNDS pp pp pp
-5.7758099999999999e+00 5.7758099999999999e+00
-5.7758099999999999e+00 5.7758099999999999e+00
-5.7758099999999999e+00 5.7758099999999999e+00
ITEM: ATOMS id mol type x y z 
1 1 1 -1.30429 -1.76051 5.62818 
2 1 1 -0.741981 -2.47154 -5.69085 
3 1 1 0.0242761 -2.86548 5.54277 
4 1 1 -0.2445 -3.78389 5.39077 
5 1 1 0.545006 -4.03112 4.89735 
6 1 1 0.842287 -4.94092 4.88524 
7 1 1 0.332035 -5.76612 4.91213 
8 1 1 -0.504145 5.36172 5.20554 
9 1 1 -0.32559 4.41615 5.05459 
10 1 1 -0.642926 3.60638 5.413 
11 1 1 -0.487293 2.70188 5.58928 
12 1 1 0.402422 2.44094 5.41466 
13 1 1 0.940276 2.61234 4.64926 
14 1 1 1.03429 3.38208 4.0804 
15 1 1 1.14036 4.26749 4.30978 
16 1 1 1.71172 5.01898 4.46541 
17 1 1 2.40352 4.52152 4.90337 
18 1 1 2.83087 3.68444 4.84985 
19 1 1 2.49167 2.98213 5.38641 
20 1 1 2.00267 2.43624 -5.61222 
21 1 1 1.38627 2.35464 -4.84728 
22 1 1 0.673651 2.92567 -4.50953 
23 1 1 -0.054875 3.57717 -4.65918 
24 1 1 -0.310579 4.44676 -4.97444 
25 1 1 -0.685516 5.28663 -4.76855 
26 1 1 -0.403048 -5.62274 -4.15677 
27 1 1 0.517863 5.67632 -4.02726 
28 1 1 1.42041 5.46994 -4.28524 
29 1 1 1.47351 4.88488 -5.02279 
30 1 1 1.81701 4.01086 -5.18124 
ITEM: TIMESTEP
7000
ITEM: NUMBER OF ATOMS
30
ITEM: BOX BOUNDS pp pp pp
-5.7758099999999999e+00 5.7758099999999999e+00
-5.7758099999999999e+00 5.7758099999999999e+00
-5.7758099999999999e+00 5.7758099999999999e+00
ITEM: ATOMS id mol type x y z 
1 1 1 -1.1124 -2.29535 4.91979 
2 1 1 -0.687319 -2.47955 5.72922 
3 1 1 -0.0226235 -3.11292 5.68376 
4 1 1 0.0453101 -3.94448 5.23568 
5 1 1 0.440162 -4.27215 4.45799 
6 1 1 0.579735 -5.20559 4.74075 
7 1 1 0.332464 5.5913 4.19516 
8 1 1 -0.248045 5.03722 4.70084 
9 1 1 -0.319956 4.16362 5.0451 
10 1 1 -0.364156 3.2228 5.06586 
11 1 1 -0.113254 2.50391 5.61864 
12 1 1 0.70953 2.02356 5.44955 
13 1 1 1.09234 2.30454 4.65061 
14 1 1 1.28752 2.94126 3.90146 
15 1 1 1.15719 3.85132 4.19502 
16 1 1 1.76717 4.57176 4.49181 
17 1 1 2.6839 4.2659 4.50188 
18 1 1 2.68726 3.29249 4.57464 
19 1 1 2.48941 2.66345 5.31692 
20 1 1 2.34111 2.40376 -5.32736 
21 1 1 1.43796 2.34917 -4.86003 
22 1 1 0.867916 3.09544 -4.90426 
23 1 1 0.0211562 3.60467 -5.03323 
24 1 1 -0.381089 4.43161 -4.8112 
25 1 1 -0.318438 5.39113 -5.07686 
26 1 1 0.042387 -5.6633 -4.2948 
27 1 1 0.885553 5.41412 -4.23282 
28 1 1 1.54626 5.10143 -4.82099 
29 1 1 1.28857 4.49264 -5.52535 
30 1 1 2.13688 4.04199 -5.53742 
ITEM: TIMESTEP
8000
ITEM: NUMBER OF ATOMS
30
ITEM: BOX BOUNDS pp pp pp
-5.7758099999999999e+00 5.7758099999999999e+00
-5.7758099999999999e+00 5.7758099999999999e+00
-5.7758099999999999e+00 5.7758099999999999e+00
ITEM: ATOMS id mol type x y z 
1 1 1 -1.33283 -2.49918 4.94263 
2 1 1 -0.737097 -2.44025 5.65764 
3 1 1 -0.264639 -3.25784 5.61173 
4 1 1 0.106606 -3.9806 5.12975 
5 1 1 0.343629 -4.40158 4.26037 
6 1 1 0.74114 -5.25388 4.33959 
7 1 1 0.652808 5.38291 4.19841 
8 1 1 0.175897 4.64334 4.62613 
9 1 1 -0.263953 3.77908 4.73614 
10 1 1 -0.503985 2.93924 5.10315 
11 1 1 0.049477 2.5568 5.7578 
12 1 1 0.799032 1.99772 5.45824 
13 1 1 1.06009 2.61328 4.81673 
14 1 1 1.48706 2.91118 4.03695 
15 1 1 1.84088 3.78121 4.05382 
16 1 1 2.51511 4.38674 4.20959 
17 1 1 3.04749 4.09306 4.93574 
18 1 1 3.18485 3.16377 4.72433 
19 1 1 2.66148 2.71935 5.43107 
20 1 1 2.46066 2.87682 -5.19864 
21 1 1 1.54666 2.68171 -4.87277 
22 1 1 0.896648 3.41408 -4.90804 
23 1 1 0.217643 3.73877 -4.34884 
24 1 1 -0.442786 4.36949 -4.76946 
25 1 1 -0.312358 5.00103 -5.44709 
26 1 1 0.0727732 5.74831 -5.03744 
27 1 1 0.953452 5.70132 -4.62232 
28 1 1 1.38495 5.09444 -5.17911 
29 1 1 1.36142 4.5026 5.6039 
30 1 1 2.12922 4.31297 -5.38608 
ITEM: TIMESTEP
9000
ITEM: NUMBER OF ATOMS
30
ITEM: BOX BOUNDS pp pp pp
-5.7758099999999999e+00 5.7758099999999999e+00
-5.7758099999999999e+00 5.7758099999999999e+00
-5.7758099999999999e+00 5.7758099999999999e+00
ITEM: ATOMS id mol type x y z 
1 1 1 -1.13564 -2.0024 5.21378 
2 1 1 -0.685147 -2.69015 5.67637 
3 1 1 -0.706455 -3.66387 5.71704 
4 1 1 -0.213801 -4.18261 5.0814 
5 1 1 -0.251161 -4.65459 4.26408 
6 1 1 0.567111 -5.12118 4.31609 
7 1 1 0.560262 5.5305 3.94061 
8 1 1 0.375075 4.55753 4.06643 
9 1 1 -0.0311875 3.69669 4.39066 
10 1 1 -0.446179 2.83692 4.51882 
11 1 1 -0.404722 2.46534 5.43618 
12 1 1 0.419797 1.98768 5.44012 
13 1 1 1.02042 2.70278 5.09869 
14 1 1 1.13004 2.68388 4.18656 
15 1 1 1.52368 3.53335 4.01395 
16 1 1 1.96792 4.38105 4.18811 
17 1 1 2.90026 4.24545 4.30388 
18 1 1 3.04531 3.33138 4.39133 
19 1 1 2.84229 2.88968 5.22203 
20 1 1 2.43408 2.71279 -5.43515 
21 1 1 1.74594 2.50909 -4.76081 
22 1 1 0.830774 2.95251 -4.93498 
23 1 1 0.00731418 3.43226 -4.78653 
24 1 1 -0.464849 3.90553 -5.49725 
25 1 1 -0.346887 4.85066 -5.52547 
26 1 1 0.052946 5.68512 -5.5351 
27 1 1 0.917041 -5.60273 -5.12485 
28 1 1 1.59828 5.33592 -5.43157 
29 1 1 1.59568 4.41919 5.76008 
30 1 1 2.54832 4.26278 -5.70606 
ITEM: TIMESTEP
10000
ITEM: NUMBER OF ATOMS
30
ITEM: BOX BOUNDS pp pp pp
-5.7758099999999999e+00 5.7758099999999999e+00
-5.7758099999999999e+00 5.7758099999999999e+00
-5.7758099999999999e+00 5.7758099999999999e+00
ITEM: ATOMS id mol type x y z 
1 1 1 -1.28605 -1.87904 5.49458 
2 1 1 -0.831557 -2.74182 5.67383 
3 1 1 -0.439005 -3.35387 5.00987 
4 1 1 -0.343873 -4.32441 4.68803 
5 1 1 0.0198396 -4.93375 4.05587 
6 1 1 0.459176 5.73966 4.13515 
7 1 1 0.414424 4.78528 3.94221 
8 1 1 -0.250023 4.22631 4.19897 
9 1 1 -0.0241912 3.28004 4.4064 
10 1 1 -0.755299 2.96834 4.90486 
11 1 1 -0.562254 2.37568 5.61177 
12 1 1 0.2841 1.99181 5.39613 
13 1 1 0.921801 2.66593 5.39071 
14 1 1 1.54432 2.58514 4.63686 
15 1 1 1.52211 3.4612 4.23539 
16 1 1 1.82025 4.29801 4.56549 
17 1 1 2.72408 4.00616 4.44256 
18 1 1 2.97167 3.25778 4.92187 
19 1 1 2.85517 2.78163 5.76541 
20 1 1 2.3444 2.73278 -5.00899 
21 1 1 1.5499 2.55998 -4.57584 
22 1 1 0.650188 2.6895 -4.89001 
23 1 1 -0.00504201 3.37447 -4.92778 
24 1 1 0.0580094 3.82365 -5.71796 
25 1 1 -0.172953 4.72578 -5.38024 
26 1 1 0.423966 5.41491 -5.12093 
27 1 1 1.19252 5.40046 -5.70921 
28 1 1 2.18415 5.2778 -5.6282 
29 1 1 2.19642 4.4077 -5.17556 
30 1 1 3.11786 4.12429 -5.3493 
ITEM: TIMESTEP
11000
ITEM: NUMBER OF ATOMS
30
ITEM: BOX BOUNDS pp pp pp
-5.7758099999999999e+00 5.7758099999999999e+00
-5.7758099999999999e+00 5.7758099999999999e+00
-5.7758099999999999e+00 5.7758099999999999e+00
ITEM: ATOMS id mol type x y z 
1 1 1 -1.02374 -2.06991 5.69314 
2 1 1 -0.719432 -2.9719 5.48007 
3 1 1 -0.0826752 -3.53933 5.03232 
4 1 1 -0.51119 -4.0163 4.32631 
5 1 1 -0.539513 -4.96064 4.06211 
6 1 1 -0.139087 5.71963 4.05056 
7 1 1 0.331977 4.9003 4.38244 
8 1 1 -0.15292 4.06747 4.48854 
9 1 1 -0.0251388 3.1008 4.40311 
10 1 1 -0.633695 2.54784 4.9256 
11 1 1 -0.158544 2.19197 5.70525 
12 1 1 0.726636 1.98556 5.41316 
13 1 1 1.10096 2.86516 5.36201 
14 1 1 1.66054 2.63538 4.61301 
15 1 1 1.59909 3.5445 4.35051 
16 1 1 2.20647 4.23997 4.14066 
17 1 1 2.86094 4.43924 4.77886 
18 1 1 3.20085 3.63441 5.08272 
19 1 1 2.66319 3.23286 5.7406 
20 1 1 2.27991 2.99737 -4.91263 
21 1 1 1.59497 2.9031 -4.24869 
22 1 1 0.667691 2.97484 -4.56262 
23 1 1 -0.0500077 3.60353 -4.46015 
24 1 1 -0.0564504 4.06377 -5.30957 
25 1 1 -0.159424 4.95741 -5.05316 
26 1 1 0.405047 5.71126 -5.10764 
27 1 1 1.0979 5.40734 -5.66745 
28 1 1 2.05549 5.41646 -5.60943 
29 1 1 2.44644 4.68795 -5.12945 
30 1 1 3.27733 4.21052 -4.88754 
ITEM: TIMESTEP
12000
ITEM: NUMBER OF ATOMS
30
ITEM: BOX BOUNDS pp pp pp
-5.7758099999999999e+00 5.7758099999999999e+00
-5.7758099999999999e+00 5.7758099999999999e+00
-5.7758099999999999e+00 5.7758099999999999e+00
ITEM: ATOMS id mol type x y z 
1 1 1 -1.02341 -2.3336 5.73464 
2 1 1 -0.544893 -3.06343 5.2682 
3 1 1 -0.414654 -3.92161 4.7863 
4 1 1 -0.818958 -4.18159 3.92234 
5 1 1 -0.394831 -5.03889 3.93119 
6 1 1 -0.55037 5.5308 3.90847 
7 1 1 0.0701606 4.93721 4.37114 
8 1 1 -0.193944 4.04755 4.61625 
9 1 1 0.0123959 3.1248 4.81284 
10 1 1 -0.612435 2.46467 5.18803 
11 1 1 -0.072974 1.851 -5.73933 
12 1 1 0.639646 1.69179 5.24227 
13 1 1 1.43252 2.20767 5.41036 
14 1 1 1.50203 2.86174 4.72331 
15 1 1 1.53584 3.19677 3.86231 
16 1 1 1.79794 4.09081 3.61993 
17 1 1 2.2714 4.30121 4.45846 
18 1 1 2.78681 3.71794 4.96393 
19 1 1 2.71389 3.37586 -5.72432 
20 1 1 2.39009 3.05627 -4.92977 
21 1 1 1.82313 2.84149 -4.18014 
22 1 1 0.887199 2.87393 -3.97001 
23 1 1 0.587559 3.60974 -4.52459 
24 1 1 0.107704 3.85942 -5.33792 
25 1 1 -0.554483 4.45591 -5.11433 
26 1 1 -0.134103 5.21068 -5.53811 
27 1 1 0.754545 5.26382 5.61794 
28 1 1 1.63586 5.46376 -5.58603 
29 1 1 2.4611 5.16115 -5.19187 
30 1 1 3.04518 4.97905 -4.40702 
ITEM: TIMESTEP
13000
ITEM: NUMBER OF ATOMS
30
ITEM: BOX BOUNDS pp pp pp
-5.7758099999999999e+00 5.7758099999999999e+00
-5.7758099999999999e+00 5.7758099999999999e+00
-5.7758099999999999e+00 5.7758099999999999e+00
ITEM: ATOMS id mol type x y z 
1 1 1 -0.826198 -2.72426 4.91589 
2 1 1 -0.365483 -3.14592 4.22642 
3 1 1 0.218471 -3.78741 3.86973 
4 1 1 -0.320627 -4.24556 3.14905 
5 1 1 -0.0505446 -5.1196 3.44473 
6 1 1 -0.732233 -5.72861 3.57546 
7 1 1 -0.42786 4.94652 3.9579 
8 1 1 -0.740002 4.08684 4.15217 
9 1 1 -0.22717 3.32289 4.38484 
10 1 1 -0.598075 2.84667 5.13587 
11 1 1 -0.211938 2.042 5.58482 
12 1 1 0.638083 1.60727 5.76561 
13 1 1 1.2984 2.25235 5.48682 
14 1 1 1.03893 2.81781 4.73379 
15 1 1 1.44185 2.94663 3.88011 
16 1 1 2.12991 3.55016 3.51381 
17 1 1 2.46949 4.16727 4.1059 
18 1 1 2.79673 3.855 4.97195 
19 1 1 2.50948 3.63205 -5.70031 
20 1 1 2.35931 3.34181 -4.78349 
21 1 1 1.65998 2.97564 -4.19847 
22 1 1 0.742753 2.75493 -3.99703 
23 1 1 0.249423 3.18383 -4.67054 
24 1 1 0.440046 3.64375 -5.48882 
25 1 1 -0.317344 4.21661 -5.50732 
26 1 1 -0.0395145 5.06001 5.61774 
27 1 1 0.957198 5.0208 5.64967 
28 1 1 1.58104 5.28648 -5.18942 
29 1 1 2.49625 5.29332 -5.00378 
30 1 1 3.21408 5.20712 -4.37178 
ITEM: TIMESTEP
14000
ITEM: NUMBER OF ATOMS
30
ITEM: BOX BOUNDS pp pp pp
-5.7758099999999999e+00 5.7758099999999999e+00
-5.7758099999999999e+00 5.7758099999999999e+00
-5.7758099999999999e+00 5.7758099999999999e+00
ITEM: ATOMS id mol type x y z 
1 1 1 -0.624316 -2.63072 4.56899 
2 1 1 -0.212195 -2.77782 3.72261 
3 1 1 -0.286011 -3.7272 3.51603 
4 1 1 -0.491382 -4.53874 3.00426 
5 1 1 -0.15518 -5.40994 3.19509 
6 1 1 -0.374336 5.29735 3.59455 
7 1 1 -0.592821 4.69198 4.30764 
8 1 1 -0.940911 3.94705 4.75621 
9 1 1 -0.469237 3.13897 4.9426 
10 1 1 -0.531523 2.31262 5.43227 
11 1 1 -0.334907 1.43734 5.78997 
12 1 1 0.581855 1.36599 5.42217 
13 1 1 1.32517 1.94532 5.20473 
14 1 1 0.914627 2.82983 4.88003 
15 1 1 1.5493 2.92137 4.15752 
16 1 1 1.93406 3.57819 3.57784 
17 1 1 2.51613 4.27301 4.01905 
18 1 1 2.41803 4.02079 4.94879 
19 1 1 2.41644 3.95074 -5.64693 
20 1 1 1.8169 3.5551 -5.00775 
21 1 1 1.91961 2.98371 -4.25311 
22 1 1 1.06525 2.56946 -4.02158 
23 1 1 0.421819 2.81564 -4.69656 
24 1 1 0.293499 3.59039 -5.25461 
25 1 1 -0.516093 4.13985 -5.15437 
26 1 1 -0.0405815 4.88383 -5.5856 
27 1 1 0.808003 5.21607 -5.20885 
28 1 1 1.59534 5.04187 -4.67273 
29 1 1 2.30308 5.53223 -4.96644 
30 1 1 3.1356 -5.60354 -4.94172 
ITEM: TIMESTEP
15000
ITEM: NUMBER OF ATOMS
30
ITEM: BOX BOUNDS pp pp pp
-5.7758099999999999e+00 5.7758099999999999e+00
-5.7758099999999999e+00 5.7758099999999999e+00
-5.7758099999999999e+00 5.7758099999999999e+00
ITEM: ATOMS id mol type x y z 
1 1 1 -1.46114 -2.2001 4.11216 
2 1 1 -1.00263 -3.0139 3.81715 
3 1 1 -0.696059 -3.84315 3.45688 
4 1 1 -0.191705 -4.62274 3.38418 
5 1 1 -0.148939 -5.49387 3.08768 
6 1 1 0.0266747 5.25002 3.64783 
7 1 1 -0.171301 4.45873 4.19405 
8 1 1 -0.649829 3.81382 4.78485 
9 1 1 -0.273766 2.90917 4.74532 
10 1 1 -0.507897 2.15406 5.31445 
11 1 1 -0.250579 1.28136 5.53631 
12 1 1 0.447341 1.0116 4.98553 
13 1 1 1.20221 1.58745 5.14106 
14 1 1 1.082 2.55938 5.16869 
15 1 1 1.85719 2.71846 4.61924 
16 1 1 1.77832 3.39229 3.93949 
17 1 1 2.24912 4.1911 4.22842 
18 1 1 2.8321 4.04884 4.9929 
19 1 1 2.83566 4.06495 -5.62642 
20 1 1 2.34208 3.52597 -4.90058 
21 1 1 2.14416 2.60345 -4.74606 
22 1 1 1.16422 2.60824 -4.78944 
23 1 1 0.255039 2.94953 -4.83381 
24 1 1 0.0711919 3.70218 -5.43502 
25 1 1 -0.406303 4.55639 -5.58493 
26 1 1 0.154347 5.45544 -5.61544 
27 1 1 0.956871 5.06384 -5.34767 
28 1 1 1.31121 4.91073 -4.44282 
29 1 1 2.26884 4.99506 -4.49226 
30 1 1 3.15739 4.83608 -4.10258 
ITEM: TIMESTEP
16000
ITEM: NUMBER OF ATOMS
30
ITEM: BOX BOUNDS pp pp pp
-5.7758099999999999e+00 5.7758099999999999e+00
-5.7758099999999999e+00 5.7758099999999999e+00
-5.7758099999999999e+00 5.7758099999999999e+00
ITEM: ATOMS id mol type x y z 
1 1 1 -1.24893 -2.54825 3.72541 
2 1 1 -0.861811 -3.39749 3.96589 
3 1 1 -1.26607 -4.26346 3.83889 
4 1 1 -0.862973 -4.94209 3.30996 
5 1 1 -0.092289 -5.37037 2.95057 
6 1 1 -0.218575 5.34186 3.37401 
7 1 1 -0.267926 4.42654 3.66237 
8 1 1 -0.607331 4.20573 4.50665 
9 1 1 -0.365033 3.27248 4.58177 
10 1 1 -0.763456 2.4396 4.98684 
11 1 1 -0.348167 1.74208 5.46007 
12 1 1 0.239912 1.16362 4.90639 
13 1 1 0.706979 1.86532 5.31533 
14 1 1 0.861463 2.78938 5.1277 
15 1 1 1.59566 2.90084 4.48641 
16 1 1 1.52116 3.74014 4.024 
17 1 1 2.30701 4.28759 4.33199 
18 1 1 2.81868 3.72521 4.93121 
19 1 1 3.40195 3.91053 5.69067 
20 1 1 2.74714 4.00478 -5.13136 
21 1 1 2.04197 3.53378 -4.66825 
22 1 1 1.1004 3.4679 -4.44231 
23 1 1 0.306803 3.22782 -4.86391 
24 1 1 -0.329355 3.81947 -5.28848 
25 1 1 -0.693704 4.74311 -5.45373 
26 1 1 0.122566 5.15639 5.7633 
27 1 1 0.769634 5.18321 -5.0929 
28 1 1 1.47828 5.06491 -4.46283 
29 1 1 2.31771 5.4667 -4.30869 
30 1 1 3.15501 5.61074 -4.70033 
ITEM: TIMESTEP
17000
ITEM: NUMBER OF ATOMS
30
ITEM: BOX BOUNDS pp pp pp
-5.7758099999999999e+00 5.7758099999999999e+00
-5.7758099999999999e+00 5.7758099999999999e+00
-5.7758099999999999e+00 5.7758099999999999e+00
ITEM: ATOMS id mol type x y z 
1 1 1 -0.685502 -2.61195 3.70799 
2 1 1 -0.688863 -3.53137 3.91886 
3 1 1 -1.29078 -4.2573 3.90912 
4 1 1 -1.03986 -4.87596 3.17778 
5 1 1 -0.236479 -5.22868 3.47517 
6 1 1 -0.414882 5.4192 3.82387 
7 1 1 -0.273365 4.52014 3.44993 
8 1 1 -0.0554283 3.99893 4.21908 
9 1 1 -0.115368 3.0541 4.46095 
10 1 1 -0.256921 2.57502 5.24256 
11 1 1 -0.065336 1.67601 4.97275 
12 1 1 0.828441 1.36824 5.02567 
13 1 1 1.19747 2.07497 5.54872 
14 1 1 1.35431 2.88261 5.09446 
15 1 1 1.78132 3.05155 4.22797 
16 1 1 2.15878 3.80966 3.71932 
17 1 1 2.27915 4.47428 4.39404 
18 1 1 2.58593 4.05494 5.22259 
19 1 1 2.58013 4.30883 -5.40601 
20 1 1 2.49851 3.77823 -4.61094 
21 1 1 1.79897 3.17249 -4.29579 
22 1 1 0.821057 3.23081 -4.17667 
23 1 1 0.560007 3.22052 -5.07267 
24 1 1 -0.0573605 3.88637 -5.33991 
25 1 1 -0.472321 4.74389 -5.16567 
26 1 1 0.153042 5.45268 -5.15231 
27 1 1 0.855087 5.1498 -4.59634 
28 1 1 1.81147 5.19958 -4.45447 
29 1 1 2.74806 5.3206 -4.39709 
30 1 1 3.58225 5.45426 -4.93494 
ITEM: TIMESTEP
18000
ITEM: NUMBER OF ATOMS
30
ITEM: BOX BOUNDS pp pp pp
-5.7758099999999999e+00 5.7758099999999999e+00
-5.7758099999999999e+00 5.7758099999999999e+00
-5.7758099999999999e+00 5.7758099999999999e+00
ITEM: ATOMS id mol type x y z 
1 1 1 -1.01763 -2.42552 3.9014 
2 1 1 -0.697932 -3.28276 4.04931 
3 1 1 -0.993135 -4.17623 3.81497 
4 1 1 -0.708814 -4.48724 2.96603 
5 1 1 -0.751654 -5.47496 2.80048 
6 1 1 -0.547183 5.67961 3.62664 
7 1 1 -0.324368 4.71296 3.37865 
8 1 1 -0.541318 4.1155 4.09368 
9 1 1 -0.401507 3.26854 4.63856 
10 1 1 -0.735461 2.61334 5.29748 
11 1 1 -0.234415 1.78175 5.22807 
12 1 1 0.723062 1.6399 5.06593 
13 1 1 1.4836 2.16971 5.43519 
14 1 1 1.20906 2.98653 5.15615 
15 1 1 1.71021 3.22856 4.33999 
16 1 1 1.94853 3.93783 3.72133 
17 1 1 2.3931 4.37954 4.44672 
18 1 1 2.51545 3.97995 5.34458 
19 1 1 2.58817 4.27698 -5.28742 
20 1 1 2.33866 3.46307 -4.8162 
21 1 1 1.45045 3.04035 -4.8234 
22 1 1 0.70338 3.63716 -4.69633 
23 1 1 0.121787 3.02386 -5.08531 
24 1 1 -0.501648 3.64524 -5.38425 
25 1 1 -0.4719 4.57372 -5.54871 
26 1 1 -0.226824 5.07046 -4.66431 
27 1 1 0.541541 5.05945 -4.16198 
28 1 1 1.4522 5.25638 -4.4743 
29 1 1 2.24786 5.44993 -4.87869 
30 1 1 3.20789 5.64533 -4.75505 
ITEM: TIMESTEP
19000
ITEM: NUMBER OF ATOMS
30
ITEM: BOX BOUNDS pp pp pp
-5.7758099999999999e+00 5.7758099999999999e+00
-5.7758099999999999e+00 5.7758099999999999e+00
-5.7758099999999999e+00 5.7758099999999999e+00
ITEM: ATOMS id mol type x y z 
1 1 1 -0.348085 -2.53586 3.85139 
2 1 1 -0.57085 -3.38661 3.50547 
3 1 1 -1.13167 -4.10408 3.81003 
4 1 1 -1.10633 -4.67409 3.04305 
5 1 1 -0.860637 -5.61702 3.0286 
6 1 1 -0.614003 5.35644 3.74514 
7 1 1 -0.285803 4.48953 3.47364 
8 1 1 -0.523015 3.55893 3.76975 
9 1 1 -0.236371 3.45978 4.7118 
10 1 1 -0.400599 2.6011 5.06468 
11 1 1 -0.012421 1.71313 5.27559 
12 1 1 0.839047 1.30647 5.15436 
13 1 1 1.50334 1.92862 5.449 
14 1 1 1.17708 2.74021 4.98807 
15 1 1 1.69313 3.16713 4.32164 
16 1 1 2.00153 4.10248 4.02947 
17 1 1 2.71357 4.16492 4.67235 
18 1 1 2.93151 3.84704 5.58277 
19 1 1 2.59189 3.34674 -5.21645 
20 1 1 2.16303 2.61689 -4.74771 
21 1 1 1.24225 2.77871 -4.61248 
22 1 1 0.589546 3.48728 -4.63862 
23 1 1 -0.248103 3.0875 -4.90863 
24 1 1 -0.797551 3.6769 -5.39583 
25 1 1 -0.50738 4.58928 -5.71124 
26 1 1 -0.167535 5.31985 -5.22007 
27 1 1 0.274889 5.03782 -4.40704 
28 1 1 1.21262 5.2169 -4.45797 
29 1 1 1.97422 5.51161 -4.91543 
30 1 1 2.92298 5.66609 -5.14713 
ITEM: TIMESTEP
20000
ITEM: NUMBER OF ATOMS
30
ITEM: BOX BOUNDS pp pp pp
-5.7758099999999999e+00 5.7758099999999999e+00
-5.7758099999999999e+00 5.7758099999999999e+00
-5.7758099999999999e+00 5.7758099999999999e+00
ITEM: ATOMS id mol type x y z 
1 1 1 -0.0524995 -2.48608 4.23623 
2 1 1 -0.478743 -3.18818 3.74557 
3 1 1 -0.655461 -4.08684 4.03071 
4 1 1 -0.64461 -4.61586 3.23154 
5 1 1 -0.665478 -5.59493 3.42539 
6 1 1 -0.36055 5.35808 4.11146 
7 1 1 -0.499033 4.41907 4.19307 
8 1 1 -0.669516 3.54368 3.88294 
9 1 1 -0.412265 2.98327 4.62038 
10 1 1 -0.677547 2.25323 5.17576 
11 1 1 -0.311909 1.53204 5.70059 
12 1 1 0.583582 1.35214 -5.57732 
13 1 1 1.11207 1.62318 5.15658 
14 1 1 1.19784 2.52758 4.82142 
15 1 1 1.37395 3.44561 4.55515 
16 1 1 1.75785 4.32286 4.5998 
17 1 1 1.89877 4.14274 5.52229 
18 1 1 2.6524 3.81259 -5.5639 
19 1 1 2.78684 2.97495 -5.08129 
20 1 1 2.2606 2.23671 -5.333 
21 1 1 1.42173 2.51244 -4.95255 
22 1 1 0.918383 3.35298 -4.93184 
23 1 1 0.0158538 2.93967 -4.67797 
24 1 1 -0.496874 3.28416 -5.42104 
25 1 1 -0.506578 4.18393 -5.21575 
26 1 1 -0.33998 4.93279 -4.63889 
27 1 1 0.39109 5.24088 -4.08541 
28 1 1 1.27792 5.63154 -4.1276 
29 1 1 2.18834 5.46075 -4.447 
30 1 1 2.37475 5.62039 -5.41842 
ITEM: TIMESTEP
21000
ITEM: NUMBER OF ATOMS
30
ITEM: BOX BOUNDS pp pp pp
-5.7758099999999999e+00 5.7758099999999999e+00
-5.7758099999999999e+00 5.7758099999999999e+00
-5.7758099999999999e+00 5.7758099999999999e+00
ITEM: ATOMS id mol type x y z 
1 1 1 -0.454307 -2.5877 3.71387 
2 1 1 -0.330908 -3.54254 3.67352 
3 1 1 -1.05949 -4.10883 3.58431 
4 1 1 -1.02301 -4.99689 3.19807 
5 1 1 -0.747618 -5.65057 3.79512 
6 1 1 -1.00025 5.38619 4.56401 
7 1 1 -0.888087 4.4743 4.48513 
8 1 1 -0.12764 3.86171 4.20522 
9 1 1 -0.321617 2.92874 4.54093 
10 1 1 -0.531271 2.0292 4.83525 
11 1 1 -0.471664 1.68123 5.7303 
12 1 1 0.43688 1.58126 -5.64828 
13 1 1 0.934489 2.15577 5.28904 
14 1 1 1.45948 2.91246 4.96623 
15 1 1 1.58642 3.71028 4.52092 
16 1 1 2.40931 4.21811 4.72168 
17 1 1 2.29022 4.50296 5.68367 
18 1 1 2.51935 3.71865 -5.37574 
19 1 1 2.46398 2.74444 -5.58655 
20 1 1 1.83876 2.18159 -5.10298 
21 1 1 1.408 2.86049 -4.61502 
22 1 1 0.824428 3.61641 -4.8063 
23 1 1 0.0482211 3.06874 -4.91034 
24 1 1 -0.661796 3.26304 -5.51411 
25 1 1 -0.678094 4.22349 -5.33882 
26 1 1 -0.133511 4.9868 -5.04081 
27 1 1 0.555752 5.57613 -4.81826 
28 1 1 1.24091 -5.73702 -4.19123 
29 1 1 2.12342 5.52176 -4.45313 
30 1 1 2.13213 -5.70151 -5.34638 
ITEM: TIMESTEP
22000
ITEM: NUMBER OF ATOMS
30
ITEM: BOX BOUNDS pp pp pp
-5.7758099999999999e+00 5.7758099999999999e+00
-5.7758099999999999e+00 5.7758099999999999e+00
-5.7758099999999999e+00 5.7758099999999999e+00
ITEM: ATOMS id mol type x y z 
1 1 1 -0.335736 -2.68057 4.18751 
2 1 1 -0.576922 -3.3196 3.50523 
3 1 1 -0.956943 -4.15112 3.79538 
4 1 1 -0.879516 -5.08506 3.96375 
5 1 1 -0.34291 5.70961 4.1154 
6 1 1 -0.893324 5.26488 4.79097 
7 1 1 -0.282158 4.5183 4.78008 
8 1 1 -0.0223489 3.82692 4.19748 
9 1 1 -0.513088 3.00661 4.24237 
10 1 1 -0.483801 2.37106 4.9642 
11 1 1 -0.234441 1.68669 5.63611 
12 1 1 0.718827 1.83168 5.71783 
13 1 1 0.997474 2.20897 4.86355 
14 1 1 1.7521 2.72757 4.62021 
15 1 1 1.54751 3.67199 4.79024 
16 1 1 2.32547 4.21898 4.8039 
17 1 1 2.7163 4.35292 5.67037 
18 1 1 2.93008 3.41642 -5.742 
19 1 1 2.41815 2.74867 -5.30663 
20 1 1 2.11584 2.09192 -4.69693 
21 1 1 1.5444 2.77649 -4.286 
22 1 1 0.737613 3.04388 -4.70636 
23 1 1 0.0426178 3.10528 -5.35833 
24 1 1 -0.759293 3.59525 -5.63205 
25 1 1 -0.674443 4.48778 -5.30236 
26 1 1 -0.418752 4.78733 -4.36368 
27 1 1 0.370804 5.29789 -4.663 
28 1 1 1.18737 5.33241 -4.20812 
29 1 1 1.91224 5.31912 -4.85402 
30 1 1 2.16614 5.66014 -5.71198 
ITEM: TIMESTEP
23000
ITEM: NUMBER OF ATOMS
30
ITEM: BOX BOUNDS pp pp pp
-5.7758099999999999e+00 5.7758099999999999e+00
-5.7758099999999999e+00 5.7758099999999999e+00
-5.7758099999999999e+00 5.7758099999999999e+00
ITEM: ATOMS id mol type x y z 
1 1 1 0.0334594 -2.71688 4.253 
2 1 1 -0.510799 -3.26525 3.67708 
3 1 1 -0.743345 -4.18264 3.60513 
4 1 1 -0.613306 -5.09754 3.74155 
5 1 1 -0.0933241 -5.67267 4.29624 
6 1 1 -0.385411 5.37525 5.02999 
7 1 1 -0.0423324 4.48753 4.81567 
8 1 1 -0.269671 3.61835 4.43564 
9 1 1 -0.877427 2.96 4.65705 
10 1 1 -0.939102 2.15976 5.23566 
11 1 1 -0.203721 1.78894 -5.7669 
12 1 1 0.601725 1.55055 5.33846 
13 1 1 1.47622 1.78249 4.92222 
14 1 1 1.44161 2.75625 4.79724 
15 1 1 1.35939 3.69292 4.74699 
16 1 1 2.27268 3.91542 4.8033 
17 1 1 3.06517 3.89125 5.36277 
18 1 1 3.25125 2.89517 5.48099 
19 1 1 2.47051 2.39749 -5.619 
20 1 1 2.14881 2.90974 -4.8631 
21 1 1 1.41615 3.28678 -4.3639 
22 1 1 0.601443 3.50807 -4.83336 
23 1 1 0.0234148 3.20913 -5.56942 
24 1 1 -0.738722 3.7623 -5.33263 
25 1 1 -0.834998 4.58407 -4.89689 
26 1 1 -0.301281 5.29006 -4.4552 
27 1 1 0.584094 5.04311 -4.75935 
28 1 1 1.32156 5.24393 -4.14302 
29 1 1 2.09297 5.31476 -4.69738 
30 1 1 2.43166 -5.7032 -5.4065 
ITEM: TIMESTEP
24000
ITEM: NUMBER OF ATOMS
30
ITEM: BOX BOUNDS pp pp pp
-5.7758099999999999e+00 5.7758099999999999e+00
-5.7758099999999999e+00 5.7758099999999999e+00
-5.7758099999999999e+00 5.7758099999999999e+00
ITEM: ATOMS id mol type x y z 
1 1 1 -0.758607 -2.45973 4.43341 
2 1 1 -0.393443 -2.6769 3.5774 
3 1 1 -0.39532 -3.61964 3.64751 
4 1 1 -0.421087 -4.57263 3.51657 
5 1 1 -0.396441 -5.44559 3.91161 