ITEM: TIMESTEP
0
ITEM: NUMBER OF ATOMS
30
ITEM: BOX BOUNDS pp pp pp
-5.7758099999999999e+00 5.7758099999999999e+00
-5.7758099999999999e+00 5.7758099999999999e+00
-5.7758099999999999e+00 5.7758099999999999e+00
ITEM: ATOMS id mol type xu yu zu 
1 1 1 0.354333 13.0093 -18.0027 
2 1 1 0.520137 13.9549 -17.8626 
3 1 1 0.0150733 14.7791 -17.7975 
4 1 1 -0.8486 14.387 -17.5662 
5 1 1 -0.788209 14.7635 -16.6266 
6 1 1 -0.5094 14.5058 -15.7268 
7 1 1 -0.761883 15.0855 -15.0292 
8 1 1 -0.384178 15.9595 -15.1653 
9 1 1 0.110011 16.4293 -15.8128 
10 1 1 1.04465 16.6935 -15.6945 
11 1 1 1.59777 16.5388 -16.4627 
12 1 1 2.48045 16.2778 -16.632 
13 1 1 3.07357 16.9183 -16.2217 
14 1 1 3.17339 17.3334 -15.3533 
15 1 1 2.8155 17.5822 -14.527 
16 1 1 2.54659 16.7383 -14.1629 
17 1 1 1.85246 16.3187 -13.6767 
18 1 1 0.94253 16.6327 -13.5069 
19 1 1 1.09722 17.5808 -13.2513 
20 1 1 1.06779 17.401 -12.2739 
21 1 1 1.71383 16.9179 -11.7507 
22 1 1 2.21355 16.3322 -11.1836 
23 1 1 3.22221 16.5295 -11.1789 
24 1 1 3.41319 15.8717 -11.8026 
25 1 1 3.95405 15.9778 -12.5897 
26 1 1 3.8291 16.0649 -13.5016 
27 1 1 4.19147 16.5673 -14.2407 
28 1 1 4.72936 17.2099 -13.7315 
29 1 1 5.61094 17.3204 -13.3421 
30 1 1 6.22163 17.2444 -12.592 
ITEM: TIMESTEP
1000
ITEM: NUMBER OF ATOMS
30
ITEM: BOX BOUNDS pp pp pp
-5.7758099999999999e+00 5.7758099999999999e+00
-5.7758099999999999e+00 5.7758099999999999e+00
-5.7758099999999999e+00 5.7758099999999999e+00
ITEM: ATOMS id mol type xu yu zu 
1 1 1 0.123094 13.1598 -18.222 
2 1 1 0.723899 13.9215 -17.9591 
3 1 1 0.222898 14.6694 -17.535 
4 1 1 -0.58371 14.3299 -17.2475 
5 1 1 -1.21798 14.5181 -16.5288 
6 1 1 -1.00504 14.4321 -15.5788 
7 1 1 -0.903309 15.3101 -15.1566 
8 1 1 -0.249212 16.0216 -15.2511 
9 1 1 0.179821 16.349 -16.0587 
10 1 1 1.10987 16.5505 -16.0881 
11 1 1 1.85209 16.5976 -16.709 
12 1 1 2.65697 16.8463 -16.2513 
13 1 1 3.4724 17.0735 -15.7464 
14 1 1 3.15986 17.3342 -14.9217 
15 1 1 2.95984 16.9526 -14.0858 
16 1 1 2.45177 16.1247 -13.9937 
17 1 1 2.00051 16.3895 -13.2057 
18 1 1 1.15117 16.7943 -13.2027 
19 1 1 1.09182 17.6202 -12.6448 
20 1 1 1.4761 17.1552 -11.8624 
21 1 1 2.21171 16.5679 -11.6414 
22 1 1 2.69502 15.8761 -11.1762 
23 1 1 3.59238 16.1339 -11.0561 
24 1 1 3.44831 16.4803 -11.9093 
25 1 1 4.038 16.1831 -12.6229 
26 1 1 4.07583 15.7238 -13.4609 
27 1 1 4.36652 15.9637 -14.3671 
28 1 1 4.60283 16.8827 -14.2351 
29 1 1 5.1502 16.893 -13.4655 
30 1 1 5.27311 17.0315 -12.539 
ITEM: TIMESTEP
2000
ITEM: NUMBER OF ATOMS
30
ITEM: BOX BOUNDS pp pp pp
-5.7758099999999999e+00 5.7758099999999999e+00
-5.7758099999999999e+00 5.7758099999999999e+00
-5.7758099999999999e+00 5.7758099999999999e+00
ITEM: ATOMS id mol type xu yu zu 
1 1 1 -0.084886 12.5646 -17.8417 
2 1 1 0.555476 13.2243 -17.591 
3 1 1 0.353735 14.1362 -17.7156 
4 1 1 -0.57038 14.1313 -17.5165 
5 1 1 -1.01038 14.2244 -16.6994 
6 1 1 -0.704512 14.4727 -15.8465 
7 1 1 -0.596674 15.1365 -15.188 
8 1 1 0.219591 15.6605 -15.1235 
9 1 1 0.639288 15.6816 -16.0013 
10 1 1 1.18574 16.4576 -16.2166 
11 1 1 1.93421 16.0805 -16.7137 
12 1 1 2.66941 16.6834 -16.4294 
13 1 1 3.09716 17.3353 -15.8817 
14 1 1 2.93457 17.3598 -14.9295 
15 1 1 2.93489 16.8269 -14.1529 
16 1 1 2.35527 16.0767 -13.891 
17 1 1 2.18009 16.8679 -13.3101 
18 1 1 1.32239 17.1114 -13.7244 
19 1 1 1.16325 17.2663 -12.7556 
20 1 1 1.04318 17.1099 -11.7876 
21 1 1 1.86375 16.6083 -11.6517 
22 1 1 2.64312 16.2971 -11.2024 
23 1 1 3.56435 16.3257 -11.0064 
24 1 1 4.01918 16.3643 -11.859 
25 1 1 3.83016 16.2376 -12.804 
26 1 1 4.56085 15.7251 -13.2643 
27 1 1 4.4385 16.1667 -14.1173 
28 1 1 4.52793 17.0776 -14.3793 
29 1 1 5.34765 17.1688 -13.8862 
30 1 1 5.34467 16.9409 -12.9221 
ITEM: TIMESTEP
3000
ITEM: NUMBER OF ATOMS
30
ITEM: BOX BOUNDS pp pp pp
-5.7758099999999999e+00 5.7758099999999999e+00
-5.7758099999999999e+00 5.7758099999999999e+00
-5.7758099999999999e+00 5.7758099999999999e+00
ITEM: ATOMS id mol type xu yu zu 
1 1 1 0.0174937 12.406 -18.1057 
2 1 1 0.441131 13.1033 -17.7079 
3 1 1 0.318387 14.0872 -17.6446 
4 1 1 -0.593256 13.8394 -17.619 
5 1 1 -1.12782 14.5547 -17.1375 
6 1 1 -0.781686 14.4757 -16.2317 
7 1 1 -0.5197 15.1516 -15.6189 
8 1 1 0.0398608 15.8496 -15.2709 
9 1 1 0.488123 16.2734 -16.0058 
10 1 1 1.01122 17.0802 -16.2009 
11 1 1 1.79502 16.5217 -16.0703 
12 1 1 2.48637 17.22 -16.1345 
13 1 1 2.96558 17.8897 -15.665 
14 1 1 2.57358 17.6246 -14.803 
15 1 1 3.22566 17.2451 -14.1988 
16 1 1 2.79913 16.3929 -14.2256 
17 1 1 2.2591 16.2823 -13.3733 
18 1 1 1.42034 16.7198 -13.2338 
19 1 1 1.55939 17.6609 -12.9677 
20 1 1 1.37351 17.0885 -12.2281 
21 1 1 1.94655 17.0124 -11.4417 
22 1 1 2.39234 16.1746 -11.3399 
23 1 1 3.3074 16.5368 -11.391 
24 1 1 3.6214 16.0447 -12.1261 
25 1 1 3.80686 16.1643 -13.0452 
26 1 1 4.27222 16.0915 -13.8523 
27 1 1 4.39588 16.5116 -14.7261 
28 1 1 4.99378 17.3053 -14.6108 
29 1 1 5.25798 17.3078 -13.6702 
30 1 1 4.49548 17.4694 -13.1115 
ITEM: TIMESTEP
4000
ITEM: NUMBER OF ATOMS
30
ITEM: BOX BOUNDS pp pp pp
-5.7758099999999999e+00 5.7758099999999999e+00
-5.7758099999999999e+00 5.7758099999999999e+00
-5.7758099999999999e+00 5.7758099999999999e+00
ITEM: ATOMS id mol type xu yu zu 
1 1 1 -0.162468 12.7557 -18.2964 
2 1 1 0.289359 12.6459 -17.4576 
3 1 1 -0.110693 13.5119 -17.2541 
4 1 1 -0.0544893 14.3528 -17.706 
5 1 1 -0.746735 14.7397 -17.0805 
6 1 1 -0.608238 14.7394 -16.1718 
7 1 1 -0.348648 15.1561 -15.3095 
8 1 1 -0.333357 16.1463 -15.4187 
9 1 1 0.150355 16.8074 -15.8906 
10 1 1 1.08925 17.1143 -16.0039 
11 1 1 1.92451 16.9334 -16.4501 
12 1 1 2.55978 17.6421 -16.5466 
13 1 1 2.63886 18.0065 -15.6545 
14 1 1 2.46073 17.7554 -14.777 
15 1 1 2.97096 17.3376 -14.1289 
16 1 1 2.3938 16.5011 -14.1493 
17 1 1 2.18902 16.0197 -13.3418 
18 1 1 1.41809 16.5348 -13.1325 
19 1 1 1.32861 17.4842 -12.9931 
20 1 1 1.28009 17.3728 -12.023 
21 1 1 2.02505 17.5709 -11.3868 
22 1 1 2.6574 16.887 -11.1758 
23 1 1 3.51987 17.2572 -11.5262 
24 1 1 3.84761 16.4699 -11.9924 
25 1 1 3.62946 16.511 -12.9299 
26 1 1 3.94607 16.309 -13.8545 
27 1 1 4.19052 16.661 -14.7214 
28 1 1 5.06299 17.0914 -14.7172 
29 1 1 4.93263 17.4889 -13.8548 
30 1 1 4.32672 17.82 -13.1812 
ITEM: TIMESTEP
5000
ITEM: NUMBER OF ATOMS
30
ITEM: BOX BOUNDS pp pp pp
-5.7758099999999999e+00 5.7758099999999999e+00
-5.7758099999999999e+00 5.7758099999999999e+00
-5.7758099999999999e+00 5.7758099999999999e+00
ITEM: ATOMS id mol type xu yu zu 
1 1 1 0.509762 12.8922 -18.8465 
2 1 1 0.538843 13.105 -17.9098 
3 1 1 0.410451 13.5124 -17.0439 
4 1 1 -0.278304 14.1013 -17.3715 
5 1 1 -0.899237 14.0975 -16.6475 
6 1 1 -0.256948 14.64 -16.1756 
7 1 1 -0.438928 15.3043 -15.4499 
8 1 1 0.133456 16.1059 -15.3642 
9 1 1 -0.0635624 16.893 -15.9097 
10 1 1 0.734747 17.4348 -15.9048 
11 1 1 1.55674 17.3174 -16.4394 
12 1 1 2.52666 17.5881 -16.2848 
13 1 1 3.08958 17.5166 -15.5283 
14 1 1 2.66449 17.7896 -14.7223 
15 1 1 2.63919 17.1386 -14.0159 
16 1 1 2.02704 16.4143 -14.0077 
17 1 1 2.17187 16.0379 -13.1543 
18 1 1 1.48469 16.2299 -12.5387 
19 1 1 1.07402 17.1267 -12.747 
20 1 1 1.19053 17.6174 -11.9483 
21 1 1 2.14313 17.6825 -11.8232 
22 1 1 2.64043 16.8948 -11.6373 
23 1 1 3.55696 16.9312 -11.5301 
24 1 1 3.9934 16.2589 -12.0984 
25 1 1 3.81175 16.2098 -13.0258 
26 1 1 3.92874 16.2433 -13.9562 
27 1 1 4.36913 16.8352 -14.5735 
28 1 1 5.1844 17.3009 -14.211 
29 1 1 4.73534 17.7227 -13.4555 
30 1 1 3.94321 17.757 -12.9388 
ITEM: TIMESTEP
6000
ITEM: NUMBER OF ATOMS
30
ITEM: BOX BOUNDS pp pp pp
-5.7758099999999999e+00 5.7758099999999999e+00
-5.7758099999999999e+00 5.7758099999999999e+00
-5.7758099999999999e+00 5.7758099999999999e+00
ITEM: ATOMS id mol type xu yu zu 
1 1 1 0.86537 13.2394 -18.8549 
2 1 1 0.636093 13.4388 -17.9457 
3 1 1 0.603895 13.778 -17.044 
4 1 1 -0.0356332 14.3282 -17.5213 
5 1 1 -0.504122 14.5577 -16.6693 
6 1 1 -0.0724918 14.9377 -15.872 
7 1 1 -0.523783 15.5463 -15.2942 
8 1 1 0.0813352 16.3189 -15.2561 
9 1 1 0.201157 16.7095 -16.0601 
10 1 1 0.772382 17.405 -15.865 
11 1 1 1.70849 17.4393 -16.0968 
12 1 1 2.19966 16.7518 -15.7161 
13 1 1 2.9549 16.6104 -15.1236 
14 1 1 2.6538 17.1201 -14.3349 
15 1 1 2.49619 17.2633 -13.4247 
16 1 1 2.29012 16.3053 -13.4459 
17 1 1 1.79558 16.1019 -12.6284 
18 1 1 0.894282 16.2138 -12.6869 
19 1 1 0.763176 17.2028 -12.7954 
20 1 1 1.52007 17.5038 -12.2643 
21 1 1 2.12544 17.8267 -11.6474 
22 1 1 2.5029 17.0175 -11.5667 
23 1 1 3.41286 16.871 -11.8513 
24 1 1 3.86562 16.0442 -12.0101 
25 1 1 3.92907 16.1077 -12.9771 
26 1 1 3.895 16.5925 -13.8268 
27 1 1 4.20048 17.2112 -14.513 
28 1 1 4.80622 17.9294 -14.3375 
29 1 1 4.74206 18.4966 -13.5383 
30 1 1 4.40718 17.8217 -12.9222 
ITEM: TIMESTEP
7000
ITEM: NUMBER OF ATOMS
30
ITEM: BOX BOUNDS pp pp pp
-5.7758099999999999e+00 5.7758099999999999e+00
-5.7758099999999999e+00 5.7758099999999999e+00
-5.7758099999999999e+00 5.7758099999999999e+00
ITEM: ATOMS id mol type xu yu zu 
1 1 1 0.506812 12.9977 -18.7049 
2 1 1 0.797078 13.8518 -18.373 
3 1 1 0.937741 14.0816 -17.447 
4 1 1 0.233805 14.7622 -17.3987 
5 1 1 -0.107326 14.5029 -16.5156 
6 1 1 -0.224003 14.5414 -15.5621 
7 1 1 -0.35671 15.4304 -15.2612 
8 1 1 -0.188196 16.3267 -15.0935 
9 1 1 0.478275 16.589 -15.7382 
10 1 1 1.08369 17.1341 -16.2151 
11 1 1 2.02427 17.0792 -16.3283 
12 1 1 2.47392 16.3687 -15.8917 
13 1 1 2.86745 16.8993 -15.1361 
14 1 1 2.5942 17.3851 -14.3683 
15 1 1 2.45111 17.2963 -13.4388 
16 1 1 2.08841 16.4526 -13.103 
17 1 1 1.39564 15.9916 -12.5982 
18 1 1 0.537021 16.4116 -12.5744 
19 1 1 0.842836 17.2546 -12.8618 
20 1 1 1.4171 17.5095 -12.1655 
21 1 1 2.11661 17.9372 -11.6642 
22 1 1 2.48306 17.0526 -11.4208 
23 1 1 3.456 17.1898 -11.5134 
24 1 1 3.60847 16.2854 -11.7942 
25 1 1 3.42565 15.9009 -12.6584 
26 1 1 3.71628 16.4145 -13.4172 
27 1 1 4.0598 17.1177 -13.9552 
28 1 1 4.56117 17.9507 -14.0648 
29 1 1 5.14422 18.2571 -13.3152 
30 1 1 4.77492 17.8501 -12.5105 
ITEM: TIMESTEP
8000
ITEM: NUMBER OF ATOMS
30
ITEM: BOX BOUNDS pp pp pp
-5.7758099999999999e+00 5.7758099999999999e+00
-5.7758099999999999e+00 5.7758099999999999e+00
-5.7758099999999999e+00 5.7758099999999999e+00
ITEM: ATOMS id mol type xu yu zu 
1 1 1 1.27215 12.9757 -18.5178 
2 1 1 1.38089 13.6796 -17.9129 
3 1 1 0.636029 13.6644 -17.2476 
4 1 1 0.15419 14.4608 -17.325 
5 1 1 0.00548439 14.9881 -16.5342 
6 1 1 -0.124069 14.4885 -15.75 
7 1 1 -0.335414 14.9614 -14.8939 
8 1 1 0.0797132 15.7598 -15.23 
9 1 1 0.313246 16.5009 -15.8386 
10 1 1 1.15942 16.942 -16.0257 
11 1 1 2.06514 17.2159 -16.1462 
12 1 1 2.68792 16.578 -15.7633 
13 1 1 3.29836 16.7941 -15.0279 
14 1 1 2.7134 17.2774 -14.4418 
15 1 1 2.38565 17.1935 -13.4926 
16 1 1 2.01058 16.3453 -13.2624 
17 1 1 1.50535 15.9773 -12.529 
18 1 1 0.600431 16.3846 -12.5979 
19 1 1 1.0061 17.3141 -12.7172 
20 1 1 1.32618 17.7629 -11.9296 
21 1 1 1.95988 17.9523 -11.242 
22 1 1 2.5049 17.137 -11.1759 
23 1 1 2.99626 16.6218 -11.7965 
24 1 1 3.53467 16.0232 -12.2992 
25 1 1 3.41682 15.5754 -13.1481 
26 1 1 3.58752 16.3487 -13.7525 
27 1 1 3.90114 17.2743 -13.7206 
28 1 1 4.57209 17.9348 -13.4949 
29 1 1 5.14616 18.4105 -12.9006 
30 1 1 5.62757 17.7121 -12.5527 
ITEM: TIMESTEP
9000
ITEM: NUMBER OF ATOMS
30
ITEM: BOX BOUNDS pp pp pp
-5.7758099999999999e+00 5.7758099999999999e+00
-5.7758099999999999e+00 5.7758099999999999e+00
-5.7758099999999999e+00 5.7758099999999999e+00
ITEM: ATOMS id mol type xu yu zu 
1 1 1 1.65947 13.0733 -18.5331 
2 1 1 1.78475 12.9413 -17.5638 
3 1 1 1.18422 13.556 -17.1915 
4 1 1 0.991927 14.5317 -17.2801 
5 1 1 0.27948 15.0417 -16.8131 
6 1 1 0.185457 14.54 -15.922 
7 1 1 -0.460553 15.1552 -15.6561 
8 1 1 0.120893 15.7545 -15.1588 
9 1 1 -0.0655118 16.5571 -15.5747 
10 1 1 0.839796 16.8245 -15.8401 
11 1 1 1.71469 17.1252 -15.8386 
12 1 1 2.55611 16.7393 -16.1191 
13 1 1 2.97543 17.1191 -15.3429 
14 1 1 2.70952 17.4138 -14.4908 
15 1 1 2.43641 16.9497 -13.6842 
16 1 1 2.09719 16.5273 -12.9287 
17 1 1 2.06328 15.9706 -12.1486 
18 1 1 1.06815 16.0325 -11.9844 
19 1 1 0.811018 16.9504 -12.2718 
20 1 1 1.4632 17.4953 -11.8277 
21 1 1 2.26584 17.7212 -11.324 
22 1 1 3.09677 17.4186 -11.5924 
23 1 1 3.43797 16.7191 -12.2213 
24 1 1 3.63666 15.8307 -12.0422 
25 1 1 3.60623 15.3344 -12.8434 
26 1 1 4.10042 15.9413 -13.4194 
27 1 1 4.09839 16.8302 -13.7388 
28 1 1 4.84215 17.1961 -13.2566 
29 1 1 5.01841 18.1375 -13.189 
30 1 1 5.75249 17.9435 -12.601 
ITEM: TIMESTEP
10000
ITEM: NUMBER OF ATOMS
30
ITEM: BOX BOUNDS pp pp pp
-5.7758099999999999e+00 5.7758099999999999e+00
-5.7758099999999999e+00 5.7758099999999999e+00
-5.7758099999999999e+00 5.7758099999999999e+00
ITEM: ATOMS id mol type xu yu zu 
1 1 1 2.00377 13.074 -18.6678 
2 1 1 1.70468 13.3192 -17.7581 
3 1 1 1.45026 13.7746 -16.9877 
4 1 1 0.523157 13.935 -17.2655 
5 1 1 0.415382 14.7755 -16.7621 
6 1 1 0.0532856 14.1519 -16.1031 
7 1 1 -0.07777 14.6726 -15.3215 
8 1 1 0.409283 15.4914 -15.3875 
9 1 1 0.0950262 16.311 -15.7315 
10 1 1 0.541945 17.1078 -15.4691 
11 1 1 1.42648 17.3489 -15.7332 
12 1 1 2.38781 17.2381 -15.8958 
13 1 1 2.95347 17.2653 -15.1167 
14 1 1 2.91115 17.4151 -14.1428 
15 1 1 2.77313 17.0694 -13.2595 
16 1 1 2.2887 16.2709 -13.2783 
17 1 1 2.14069 15.5222 -12.655 
18 1 1 1.64635 15.8828 -11.9353 
19 1 1 0.946793 16.394 -12.4559 
20 1 1 1.15428 17.2339 -12.1117 
21 1 1 1.85705 17.8009 -11.9219 
22 1 1 2.73771 17.4552 -11.7561 
23 1 1 3.04801 16.5476 -11.9625 
24 1 1 3.51448 15.7717 -11.7897 
25 1 1 3.65249 15.255 -12.5908 
26 1 1 4.17885 15.5657 -13.3373 
27 1 1 4.07265 16.3877 -13.8126 
28 1 1 4.47335 17.0206 -13.2209 
29 1 1 5.01606 17.8181 -13.0744 
30 1 1 5.6629 18.19 -12.4379 
ITEM: TIMESTEP
11000
ITEM: NUMBER OF ATOMS
30
ITEM: BOX BOUNDS pp pp pp
-5.7758099999999999e+00 5.7758099999999999e+00
-5.7758099999999999e+00 5.7758099999999999e+00
-5.7758099999999999e+00 5.7758099999999999e+00
ITEM: ATOMS id mol type xu yu zu 
1 1 1 2.95861 13.0045 -18.2516 
2 1 1 2.07082 12.9418 -17.8994 
3 1 1 1.6224 13.7378 -17.4807 
4 1 1 0.705979 13.8019 -17.2168 
5 1 1 0.6323 14.4321 -16.4928 
6 1 1 0.256431 14.0886 -15.6904 
7 1 1 0.261669 14.6191 -14.8934 
8 1 1 0.104342 15.5305 -14.6928 
9 1 1 0.191448 16.2346 -15.3477 
10 1 1 0.846282 16.8945 -15.4159 
11 1 1 1.17852 16.8624 -16.3114 
12 1 1 2.12085 16.8958 -16.2818 
13 1 1 2.37726 17.1869 -15.3818 
14 1 1 2.77943 17.172 -14.5151 
15 1 1 2.96817 16.9577 -13.6072 
16 1 1 2.48682 16.3021 -13.1241 
17 1 1 2.07701 15.4784 -12.8445 
18 1 1 1.38786 15.8219 -12.2851 
19 1 1 0.722351 16.4552 -11.9897 
20 1 1 1.35353 17.1355 -12.2158 
21 1 1 2.17486 17.4452 -11.8434 
22 1 1 3.09236 17.15 -11.9124 
23 1 1 3.31029 16.2053 -11.635 
24 1 1 3.85283 15.4453 -11.6068 
25 1 1 4.42053 14.9828 -12.2019 
26 1 1 4.43475 15.3624 -13.0889 
27 1 1 4.13516 16.2555 -13.0915 
28 1 1 4.69161 16.8525 -13.6248 
29 1 1 4.9188 17.6364 -13.0526 
30 1 1 5.7115 18.0789 -12.7178 
ITEM: TIMESTEP
12000
ITEM: NUMBER OF ATOMS
30
ITEM: BOX BOUNDS pp pp pp
-5.7758099999999999e+00 5.7758099999999999e+00
-5.7758099999999999e+00 5.7758099999999999e+00
-5.7758099999999999e+00 5.7758099999999999e+00
ITEM: ATOMS id mol type xu yu zu 
1 1 1 2.4321 12.5761 -17.8873 
2 1 1 1.64063 13.1108 -17.8625 
3 1 1 1.38661 13.1747 -16.9572 
4 1 1 0.644826 13.7761 -16.9286 
5 1 1 0.611761 14.5535 -16.4063 
6 1 1 -0.0530783 14.3212 -15.7553 
7 1 1 -0.450281 14.8329 -15.0278 
8 1 1 0.145708 15.3825 -14.5552 
9 1 1 0.799966 16.005 -14.8582 
10 1 1 0.776284 16.3567 -15.7733 
11 1 1 1.51159 16.5174 -16.3846 
12 1 1 2.21188 17.0992 -16.0479 
13 1 1 2.90759 17.1375 -15.4055 
14 1 1 2.47545 16.9383 -14.5278 
15 1 1 2.39457 16.6134 -13.6368 
16 1 1 2.35608 15.6315 -13.5833 
17 1 1 2.0983 15.6684 -12.6381 
18 1 1 1.87864 16.0414 -11.8192 
19 1 1 1.12141 16.6435 -11.9552 
20 1 1 1.43172 17.4636 -12.3436 
21 1 1 2.29916 17.6496 -11.9454 
22 1 1 2.90968 16.9883 -12.1478 
23 1 1 3.21022 16.2673 -11.6072 
24 1 1 3.76651 15.4332 -11.8677 
25 1 1 3.93127 14.95 -12.7135 
26 1 1 4.47106 15.5961 -13.1728 
27 1 1 3.85575 16.3087 -13.1724 
28 1 1 3.77482 17.2384 -13.4365 
29 1 1 4.39275 17.9801 -13.5371 
30 1 1 5.1541 17.6033 -13.1453 
ITEM: TIMESTEP
13000
ITEM: NUMBER OF ATOMS
30
ITEM: BOX BOUNDS pp pp pp
-5.7758099999999999e+00 5.7758099999999999e+00
-5.7758099999999999e+00 5.7758099999999999e+00
-5.7758099999999999e+00 5.7758099999999999e+00
ITEM: ATOMS id mol type xu yu zu 
1 1 1 2.13697 12.7275 -18.0151 
2 1 1 1.8395 13.541 -17.6677 
3 1 1 1.4697 13.1543 -16.8676 
4 1 1 0.630941 13.6119 -16.8092 
5 1 1 0.368331 14.1281 -16.0245 
6 1 1 -0.154323 13.9545 -15.2228 
7 1 1 -0.240464 14.7987 -14.8069 
8 1 1 0.641387 15.1772 -14.6826 
9 1 1 0.463826 16.0974 -14.8829 
10 1 1 0.680189 16.3995 -15.7587 
11 1 1 1.59626 16.4271 -15.9075 
12 1 1 2.31379 16.9806 -15.6791 
13 1 1 2.97758 16.6466 -15.0901 
14 1 1 2.6885 16.7481 -14.1991 
15 1 1 2.39985 16.2747 -13.4322 
16 1 1 2.72202 15.3775 -13.1962 
17 1 1 2.27689 15.575 -12.4003 
18 1 1 1.73198 16.1367 -11.8677 
19 1 1 1.13104 16.9052 -12.122 
20 1 1 1.56505 17.7559 -12.1919 
21 1 1 2.3915 17.4795 -11.8422 
22 1 1 3.32248 17.458 -12.0037 
23 1 1 3.87207 16.656 -12.0422 
24 1 1 3.67057 15.7509 -11.7938 
25 1 1 3.6362 14.9176 -12.2052 
26 1 1 4.54756 14.8288 -12.5663 
27 1 1 4.32564 15.502 -13.2373 
28 1 1 3.92685 16.3815 -13.2569 
29 1 1 4.40631 17.1856 -13.5457 
30 1 1 5.2961 17.1371 -13.1457 
ITEM: TIMESTEP
14000
ITEM: NUMBER OF ATOMS
30
ITEM: BOX BOUNDS pp pp pp
-5.7758099999999999e+00 5.7758099999999999e+00
-5.7758099999999999e+00 5.7758099999999999e+00
-5.7758099999999999e+00 5.7758099999999999e+00
ITEM: ATOMS id mol type xu yu zu 
1 1 1 1.57563 12.7487 -18.3611 
2 1 1 1.52996 12.9121 -17.4169 
3 1 1 0.962852 12.6578 -16.683 
4 1 1 0.172482 13.1926 -16.905 
5 1 1 0.255643 13.7181 -16.1232 
6 1 1 0.0315324 14.392 -15.4392 
7 1 1 0.170112 14.9141 -14.6435 
8 1 1 0.745998 15.5385 -15.0623 
9 1 1 0.310354 16.3689 -15.2149 
10 1 1 0.915055 16.5166 -15.9239 
11 1 1 1.83821 16.287 -15.7176 
12 1 1 2.64777 16.7704 -15.5042 
13 1 1 2.41525 16.8667 -14.5645 
14 1 1 3.19984 16.5444 -14.1435 
15 1 1 2.99645 15.6133 -14.1017 
16 1 1 2.58714 15.3113 -13.2938 
17 1 1 2.62559 15.8464 -12.5146 
18 1 1 1.81313 16.2552 -12.2408 
19 1 1 1.3384 17.0121 -12.6491 
20 1 1 2.00823 17.7424 -12.4419 
21 1 1 2.49032 17.7908 -11.6584 
22 1 1 3.36651 17.5113 -12.0138 
23 1 1 3.76311 16.7256 -12.3202 
24 1 1 4.02466 16.0667 -11.6603 
25 1 1 3.80379 15.1639 -11.4458 
26 1 1 3.88985 14.6427 -12.2679 
27 1 1 4.18071 15.2551 -12.9805 
28 1 1 4.41335 15.9921 -13.5056 
29 1 1 5.0226 16.746 -13.4548 
30 1 1 5.26535 16.9357 -12.5254 
ITEM: TIMESTEP
15000
ITEM: NUMBER OF ATOMS
30
ITEM: BOX BOUNDS pp pp pp
-5.7758099999999999e+00 5.7758099999999999e+00
-5.7758099999999999e+00 5.7758099999999999e+00
-5.7758099999999999e+00 5.7758099999999999e+00
ITEM: ATOMS id mol type xu yu zu 
1 1 1 1.69981 12.5269 -18.6772 
2 1 1 1.72521 13.2049 -18.0044 
3 1 1 1.58659 12.8123 -17.148 
4 1 1 0.724468 13.0214 -16.6864 
5 1 1 0.132494 13.4839 -16.0335 
6 1 1 -0.419941 14.0614 -15.4976 
7 1 1 -0.239206 14.5938 -14.7319 
8 1 1 0.369898 15.3311 -14.9525 
9 1 1 0.546465 16.2272 -15.2181 
10 1 1 0.727917 16.3362 -16.1324 
11 1 1 1.66816 16.5613 -16.2706 
12 1 1 1.9156 16.9726 -15.4097 
13 1 1 1.76693 16.6818 -14.4611 
14 1 1 2.64332 16.3958 -14.3341 
15 1 1 3.13522 15.6086 -14.1328 
16 1 1 2.57197 15.1371 -13.4866 
17 1 1 2.17148 15.8826 -13.0176 
18 1 1 1.48274 16.2636 -12.4541 
19 1 1 1.42613 17.1781 -12.1915 
20 1 1 1.80024 17.9374 -11.762 
21 1 1 2.66894 18.1927 -12.06 
22 1 1 3.37634 17.6136 -12.1742 
23 1 1 3.56534 16.8107 -12.6313 
24 1 1 3.55383 16.048 -12.1109 
25 1 1 3.68235 15.2884 -11.5079 
26 1 1 3.70037 15.0364 -12.4454 
27 1 1 4.65964 14.8982 -12.4446 
28 1 1 5.05308 15.441 -13.1164 
29 1 1 4.73458 16.3543 -13.2651 
30 1 1 5.23992 16.863 -12.6789 
ITEM: TIMESTEP
16000
ITEM: NUMBER OF ATOMS
30
ITEM: BOX BOUNDS pp pp pp
-5.7758099999999999e+00 5.7758099999999999e+00
-5.7758099999999999e+00 5.7758099999999999e+00
-5.7758099999999999e+00 5.7758099999999999e+00
ITEM: ATOMS id mol type xu yu zu 
1 1 1 1.39958 12.5087 -18.7478 
2 1 1 1.62838 13.2396 -18.1935 
3 1 1 1.35327 12.9356 -17.298 
4 1 1 0.909618 13.3272 -16.5535 
5 1 1 0.195666 13.9305 -16.283 
6 1 1 -0.463784 13.8872 -15.576 
7 1 1 -0.634065 14.6438 -15.0065 
8 1 1 0.245648 15.0301 -15.1163 
9 1 1 0.452167 15.9875 -15.1291 
10 1 1 0.918081 16.1256 -15.9677 
11 1 1 1.78238 16.5768 -16.13 
12 1 1 1.62728 17.1809 -15.4263 
13 1 1 2.03819 16.4245 -14.9745 
14 1 1 2.81617 16.3343 -14.4681 
15 1 1 2.79771 15.4525 -14.1015 
16 1 1 2.65283 15.0629 -13.2521 
17 1 1 2.595 15.7582 -12.6202 
18 1 1 1.75118 16.2827 -12.6436 
19 1 1 2.12448 17.1256 -12.3394 
20 1 1 1.78969 17.8001 -11.7455 
21 1 1 2.62512 18.2438 -11.4152 
22 1 1 3.45107 17.8414 -11.8011 
23 1 1 3.6738 17.1462 -12.464 
24 1 1 3.82189 16.2765 -11.9802 
25 1 1 3.68518 15.4304 -11.526 
26 1 1 3.94948 15.074 -12.3831 
27 1 1 4.88944 15.2304 -12.3823 
28 1 1 4.96096 15.5383 -13.3182 
29 1 1 5.0774 16.5039 -13.2843 
30 1 1 5.32949 17.021 -12.5248 
ITEM: TIMESTEP
17000
ITEM: NUMBER OF ATOMS
30
ITEM: BOX BOUNDS pp pp pp
-5.7758099999999999e+00 5.7758099999999999e+00
-5.7758099999999999e+00 5.7758099999999999e+00
-5.7758099999999999e+00 5.7758099999999999e+00
ITEM: ATOMS id mol type xu yu zu 
1 1 1 1.18133 11.7898 -18.4517 
2 1 1 1.4457 12.4394 -17.7498 
3 1 1 1.69662 12.9582 -16.97 
4 1 1 0.978894 13.3753 -16.5183 
5 1 1 0.095176 13.8228 -16.7 
6 1 1 -0.585351 13.8089 -16.0521 
7 1 1 0.0425968 14.1295 -15.3684 
8 1 1 0.138668 15.0951 -15.6171 
9 1 1 0.690912 15.8354 -15.4331 
10 1 1 0.713287 16.3674 -16.2141 
11 1 1 1.64341 16.272 -15.8537 
12 1 1 2.01403 16.9454 -15.257 
13 1 1 2.52563 16.6516 -14.5055 
14 1 1 2.8623 16.1394 -13.7694 
15 1 1 3.18931 15.2018 -13.6997 
16 1 1 2.76269 14.8065 -12.8873 
17 1 1 2.51865 15.6273 -12.3805 
18 1 1 1.75992 16.2356 -12.5801 
19 1 1 1.8998 17.0126 -12.0722 
20 1 1 1.62259 17.8264 -11.6635 
21 1 1 2.39654 18.2059 -11.2436 
22 1 1 3.25519 17.9135 -11.5191 
23 1 1 3.46815 17.1592 -12.062 
24 1 1 3.91088 16.3696 -11.7616 
25 1 1 3.72665 15.4325 -11.7102 
26 1 1 4.34888 14.8934 -12.2202 
27 1 1 5.13863 14.7838 -12.7639 
28 1 1 5.31803 15.7066 -13.0577 
29 1 1 5.27604 16.6588 -12.9428 
30 1 1 5.14848 17.4986 -12.4848 
ITEM: TIMESTEP
18000
ITEM: NUMBER OF ATOMS
30
ITEM: BOX BOUNDS pp pp pp
-5.7758099999999999e+00 5.7758099999999999e+00
-5.7758099999999999e+00 5.7758099999999999e+00
-5.7758099999999999e+00 5.7758099999999999e+00
ITEM: ATOMS id mol type xu yu zu 
1 1 1 0.979578 11.9132 -18.6342 
2 1 1 0.863715 12.3243 -17.78 
3 1 1 1.41301 12.6356 -17.0359 
4 1 1 0.854807 13.3469 -16.6027 
5 1 1 0.0795814 13.9239 -16.6175 
6 1 1 -0.619162 14.0666 -16.0318 
7 1 1 -0.346802 14.8898 -15.618 
8 1 1 0.345239 15.5577 -15.5014 
9 1 1 1.28307 15.723 -15.409 
10 1 1 1.30218 16.209 -16.2332 
11 1 1 2.22096 16.3684 -16.4084 
12 1 1 2.27218 16.9153 -15.6382 
13 1 1 2.85998 16.8369 -14.8563 
14 1 1 2.30407 16.5358 -14.1473 
15 1 1 2.6976 15.6713 -14.0127 
16 1 1 2.97561 15.2703 -13.1851 
17 1 1 2.31457 15.5304 -12.5931 
18 1 1 2.0993 16.3834 -12.1918 
19 1 1 1.61445 17.1219 -12.4482 
20 1 1 1.49022 17.7376 -11.7155 
21 1 1 2.18942 17.9017 -11.0545 
22 1 1 2.9863 17.9663 -11.5908 
23 1 1 3.23805 17.2559 -12.2184 
24 1 1 3.62066 16.5859 -11.6866 
25 1 1 3.3603 15.6881 -11.3937 
26 1 1 3.95057 15.1382 -11.9717 
27 1 1 4.85599 15.0354 -12.3085 
28 1 1 5.72447 15.3758 -12.5423 
29 1 1 5.49399 16.2971 -12.8809 
30 1 1 5.03249 16.7483 -12.1437 
ITEM: TIMESTEP
19000
ITEM: NUMBER OF ATOMS
30
ITEM: BOX BOUNDS pp pp pp
-5.7758099999999999e+00 5.7758099999999999e+00
-5.7758099999999999e+00 5.7758099999999999e+00
-5.7758099999999999e+00 5.7758099999999999e+00
ITEM: ATOMS id mol type xu yu zu 
1 1 1 1.40838 11.9327 -18.4825 
2 1 1 1.43137 12.5272 -17.6581 
3 1 1 1.51864 12.5671 -16.713 
4 1 1 0.779669 13.0554 -16.3764 
5 1 1 -0.181535 13.0802 -16.2204 
6 1 1 -0.389314 13.5221 -15.3992 
7 1 1 0.0697416 14.3731 -15.3461 
8 1 1 0.496208 15.2528 -15.4274 
9 1 1 1.33927 15.1863 -15.7434 
10 1 1 1.79393 15.63 -16.4652 
11 1 1 2.5184 16.2565 -16.4691 
12 1 1 2.84842 16.7052 -15.6769 
13 1 1 2.88605 16.3982 -14.7693 
14 1 1 2.07514 16.0781 -14.3792 
15 1 1 2.33327 15.1237 -14.2784 
16 1 1 2.80628 15.363 -13.4492 
17 1 1 2.29086 15.5999 -12.7083 
18 1 1 1.65837 16.3508 -12.683 
19 1 1 1.4561 17.254 -12.3324 
20 1 1 1.368 17.7574 -11.5386 
21 1 1 1.91622 18.5421 -11.4517 
22 1 1 2.73703 18.0713 -11.3114 
23 1 1 2.7499 17.2085 -11.764 
24 1 1 3.3796 16.8325 -11.1726 
25 1 1 3.00166 15.9715 -11.3262 
26 1 1 3.34874 15.1576 -11.6509 
27 1 1 4.24229 15.1948 -11.9049 
28 1 1 4.71471 15.4229 -12.6654 
29 1 1 5.11831 16.3077 -12.8144 
30 1 1 5.2429 16.8702 -12.0508 
ITEM: TIMESTEP
20000
ITEM: NUMBER OF ATOMS
30
ITEM: BOX BOUNDS pp pp pp
-5.7758099999999999e+00 5.7758099999999999e+00
-5.7758099999999999e+00 5.7758099999999999e+00
-5.7758099999999999e+00 5.7758099999999999e+00
ITEM: ATOMS id mol type xu yu zu 
1 1 1 1.49599 11.9137 -18.3041 
2 1 1 1.34226 12.7333 -17.8072 
3 1 1 0.951993 12.5893 -16.9772 
4 1 1 0.0383452 12.5237 -16.6741 
5 1 1 -0.524499 12.6643 -15.9039 
6 1 1 -0.139256 13.4828 -15.5905 
7 1 1 0.46089 14.0258 -15.0544 
8 1 1 0.633143 14.958 -15.3267 
9 1 1 1.48881 15.2658 -15.6311 
10 1 1 1.86158 15.5589 -16.43 
11 1 1 2.04539 16.5427 -16.433 
12 1 1 2.45798 16.6074 -15.5664 
13 1 1 2.82729 16.588 -14.7069 
14 1 1 2.08799 16.0874 -14.3531 
15 1 1 2.28142 15.2167 -14.0407 
16 1 1 2.83614 15.2385 -13.2731 
17 1 1 2.35423 15.9037 -12.7381 
18 1 1 1.79414 16.6653 -12.7797 
19 1 1 1.47092 17.5209 -12.4274 
20 1 1 1.52755 17.9304 -11.5401 
21 1 1 2.20003 18.6318 -11.642 
22 1 1 3.1096 18.5434 -11.8729 
23 1 1 2.98152 17.6064 -12.0042 
24 1 1 2.81396 16.8197 -11.4135 
25 1 1 2.89604 15.8437 -11.4338 
26 1 1 3.81095 15.5602 -11.5626 
27 1 1 4.72633 15.7514 -11.3257 
28 1 1 5.35123 15.9464 -12.0804 
29 1 1 5.60716 16.8615 -11.8827 
30 1 1 5.20183 17.6238 -11.4549 
ITEM: TIMESTEP
21000
ITEM: NUMBER OF ATOMS
30
ITEM: BOX BOUNDS pp pp pp
-5.7758099999999999e+00 5.7758099999999999e+00
-5.7758099999999999e+00 5.7758099999999999e+00
-5.7758099999999999e+00 5.7758099999999999e+00
ITEM: ATOMS id mol type xu yu zu 
1 1 1 1.33374 12.1274 -18.2429 
2 1 1 1.09039 12.3068 -17.336 
3 1 1 0.758426 12.1583 -16.4879 
4 1 1 0.00882384 12.3631 -15.9699 
5 1 1 0.0127694 13.0438 -15.2898 
6 1 1 -0.0712386 13.9686 -15.1915 
7 1 1 0.751726 14.086 -14.6499 
8 1 1 1.11248 15.0009 -14.6627 
9 1 1 0.9133 15.3025 -15.5466 
10 1 1 1.66381 15.8623 -15.8182 
11 1 1 2.13019 16.6811 -16.0747 
12 1 1 2.72631 16.9285 -15.3864 
13 1 1 2.36414 16.709 -14.5207 
14 1 1 2.3959 15.7466 -14.502 
15 1 1 2.40119 15.086 -13.7708 
16 1 1 2.58565 15.4588 -12.914 
17 1 1 2.45646 16.4171 -12.9267 
18 1 1 1.98259 16.9281 -12.2843 
19 1 1 2.19207 17.8488 -12.1621 
20 1 1 2.00499 18.433 -11.4418 
21 1 1 2.71245 19.0618 -11.5829 
22 1 1 3.11664 18.2974 -12.0506 
23 1 1 3.67557 17.6488 -11.7432 
24 1 1 3.30492 16.7338 -11.7671 
25 1 1 3.23608 15.7529 -11.7172 
26 1 1 3.78634 15.0542 -12.0642 
27 1 1 4.47601 15.4614 -11.5021 
28 1 1 5.32278 15.3391 -11.9102 
29 1 1 5.62481 16.2269 -11.8839 
30 1 1 4.89017 16.8658 -11.7537 
ITEM: TIMESTEP
22000
ITEM: NUMBER OF ATOMS
30
ITEM: BOX BOUNDS pp pp pp
-5.7758099999999999e+00 5.7758099999999999e+00
-5.7758099999999999e+00 5.7758099999999999e+00
-5.7758099999999999e+00 5.7758099999999999e+00
ITEM: ATOMS id mol type xu yu zu 
1 1 1 1.53072 11.4384 -18.1057 
2 1 1 1.27666 11.8737 -17.2846 
3 1 1 0.595751 11.9283 -16.6292 
4 1 1 0.204979 12.6041 -16.0327 
5 1 1 -0.0998047 13.3181 -15.4807 
6 1 1 0.0674757 13.7626 -14.609 
7 1 1 0.772374 14.0729 -14.0085 
8 1 1 0.933944 14.9758 -14.054 
9 1 1 1.31933 15.1954 -14.8876 
10 1 1 1.43207 15.6071 -15.7757 
11 1 1 1.77333 16.2853 -16.335 
12 1 1 2.03269 16.8156 -15.5366 
13 1 1 2.19174 16.4604 -14.662 
14 1 1 2.43629 15.6762 -14.1856 
15 1 1 2.84982 15.0054 -13.662 
16 1 1 2.77756 15.4468 -12.7967 
17 1 1 2.21336 16.2464 -12.8312 
18 1 1 1.91677 17.0924 -12.4981 
19 1 1 1.51023 17.8949 -12.7264 
20 1 1 1.63244 18.4872 -11.9717 
21 1 1 2.59528 18.4427 -11.6915 
22 1 1 3.05953 18.0495 -12.4355 
23 1 1 3.90678 17.7163 -12.0087 
24 1 1 3.52803 16.8283 -11.9367 
25 1 1 3.29934 16.2223 -11.2761 
26 1 1 4.01441 15.5135 -11.4366 
27 1 1 4.7201 15.5592 -12.045 
28 1 1 5.56597 15.433 -12.5291 
29 1 1 6.03123 16.3214 -12.5179 
30 1 1 5.54484 16.8877 -11.8898 
ITEM: TIMESTEP
23000
ITEM: NUMBER OF ATOMS
30
ITEM: BOX BOUNDS pp pp pp
-5.7758099999999999e+00 5.7758099999999999e+00
-5.7758099999999999e+00 5.7758099999999999e+00
-5.7758099999999999e+00 5.7758099999999999e+00
ITEM: ATOMS id mol type xu yu zu 
1 1 1 1.60574 11.7268 -18.2645 
2 1 1 0.973309 12.3367 -17.8373 
3 1 1 0.488132 12.3322 -17.0496 
4 1 1 0.416214 12.729 -16.1844 
5 1 1 0.117658 13.4917 -15.7216 
6 1 1 0.481444 13.3197 -14.8081 
7 1 1 0.912032 13.6555 -14.0376 
8 1 1 0.906876 14.5164 -14.5079 
9 1 1 1.31316 15.1174 -15.2251 
10 1 1 1.4725 15.6064 -16.0289 
11 1 1 1.83325 16.4327 -16.232 
12 1 1 2.01005 16.8048 -15.3874 
13 1 1 2.24 16.2799 -14.5904 
14 1 1 2.72481 15.4703 -14.4175 
15 1 1 3.31348 15.1153 -13.7593 
16 1 1 3.19852 15.7792 -13.0892 
17 1 1 2.40125 16.2628 -12.9539 
18 1 1 1.9559 16.9625 -12.3849 
19 1 1 1.30584 17.4595 -11.8727 
20 1 1 1.56797 18.3393 -11.6987 
21 1 1 2.46519 18.5725 -11.5681 
22 1 1 3.35029 18.5211 -11.916 
23 1 1 3.82648 17.7539 -12.164 
24 1 1 3.57361 16.8948 -11.8664 
25 1 1 3.54435 16.1643 -11.1768 
26 1 1 3.72375 15.3257 -11.5861 
27 1 1 4.62665 15.2877 -11.8516 
28 1 1 5.12948 15.2459 -12.6734 
29 1 1 5.89085 15.819 -12.6793 
30 1 1 6.1184 16.4541 -12.0318 
ITEM: TIMESTEP
24000
ITEM: NUMBER OF ATOMS
30
ITEM: BOX BOUNDS pp pp pp
-5.7758099999999999e+00 5.7758099999999999e+00
-5.7758099999999999e+00 5.7758099999999999e+00
-5.7758099999999999e+00 5.7758099999999999e+00
ITEM: ATOMS id mol type xu yu zu 
1 1 1 1.37929 11.7528 -17.7249 
2 1 1 0.625147 12.3578 -17.6252 
3 1 1 0.113322 12.275 -16.8213 
4 1 1 0.0196296 13.1289 -16.4483 
5 1 1 0.00399241 13.7 -15.7039 
6 1 1 0.670974 13.3942 -15.146 
7 1 1 1.32947 13.6496 -14.5144 
8 1 1 1.18899 14.587 -14.2835 