ITEM: TIMESTEP
0
ITEM: NUMBER OF ATOMS
30
ITEM: BOX BOUNDS pp pp pp
-5.7758099999999999e+00 5.7758099999999999e+00
-5.7758099999999999e+00 5.7758099999999999e+00
-5.7758099999999999e+00 5.7758099999999999e+00
ITEM: ATOMS id mol type x y z 
1 1 1 0.354333 1.45771 5.10055 
2 1 1 0.520137 2.40332 5.24066 
3 1 1 0.0150733 3.22744 5.30572 
4 1 1 -0.8486 2.83538 5.53701 
5 1 1 -0.788209 3.21183 -5.07498 
6 1 1 -0.5094 2.95423 -4.17518 
7 1 1 -0.761883 3.53387 -3.4776 
8 1 1 -0.384178 4.40791 -3.61367 
9 1 1 0.110011 4.87763 -4.26114 
10 1 1 1.04465 5.14189 -4.14288 
11 1 1 1.59777 4.98723 -4.91113 
12 1 1 2.48045 4.7262 -5.08041 
13 1 1 3.07357 5.3667 -4.67008 
14 1 1 3.17339 -5.76986 -3.80168 
15 1 1 2.8155 -5.52102 -2.9754 
16 1 1 2.54659 5.18664 -2.61128 
17 1 1 1.85246 4.76706 -2.12511 
18 1 1 0.94253 5.08108 -1.95526 
19 1 1 1.09722 -5.52244 -1.69965 
20 1 1 1.06779 -5.70219 -0.722246 
21 1 1 1.71383 5.36631 -0.199096 
22 1 1 2.21355 4.78055 0.368002 
23 1 1 3.22221 4.97787 0.372715 
24 1 1 3.41319 4.32008 -0.250985 
25 1 1 3.95405 4.42623 -1.03809 
26 1 1 3.8291 4.51331 -1.94994 
27 1 1 4.19147 5.01566 -2.68905 
28 1 1 4.72936 5.65832 -2.17985 
29 1 1 5.61094 5.76881 -1.79047 
30 1 1 -5.32999 5.6928 -1.04037 
ITEM: TIMESTEP
1000
ITEM: NUMBER OF ATOMS
30
ITEM: BOX BOUNDS pp pp pp
-5.7758099999999999e+00 5.7758099999999999e+00
-5.7758099999999999e+00 5.7758099999999999e+00
-5.7758099999999999e+00 5.7758099999999999e+00
ITEM: ATOMS id mol type x y z 
1 1 1 0.123094 1.60815 4.88129 
2 1 1 0.723899 2.36989 5.1441 
3 1 1 0.222898 3.11777 5.56822 
4 1 1 -0.58371 2.77826 -5.69584 
5 1 1 -1.21798 2.96648 -4.9772 
6 1 1 -1.00504 2.88051 -4.0272 
7 1 1 -0.903309 3.75844 -3.60494 
8 1 1 -0.249212 4.46995 -3.69952 
9 1 1 0.179821 4.7974 -4.50705 
10 1 1 1.10987 4.99889 -4.53646 
11 1 1 1.85209 5.04602 -5.15743 
12 1 1 2.65697 5.29471 -4.69967 
13 1 1 3.4724 5.52184 -4.19477 
14 1 1 3.15986 -5.76901 -3.37011 
15 1 1 2.95984 5.40094 -2.5342 
16 1 1 2.45177 4.57306 -2.44208 
17 1 1 2.00051 4.83787 -1.65406 
18 1 1 1.15117 5.24269 -1.65107 
19 1 1 1.09182 -5.48306 -1.09315 
20 1 1 1.4761 5.60359 -0.310765 
21 1 1 2.21171 5.01629 -0.089824 
22 1 1 2.69502 4.32452 0.375419 
23 1 1 3.59238 4.5823 0.495471 
24 1 1 3.44831 4.92868 -0.357715 
25 1 1 4.038 4.6315 -1.07125 
26 1 1 4.07583 4.17217 -1.9093 
27 1 1 4.36652 4.41205 -2.81548 
28 1 1 4.60283 5.33106 -2.68347 
29 1 1 5.1502 5.34134 -1.91384 
30 1 1 5.27311 5.47989 -0.987383 
ITEM: TIMESTEP
2000
ITEM: NUMBER OF ATOMS
30
ITEM: BOX BOUNDS pp pp pp
-5.7758099999999999e+00 5.7758099999999999e+00
-5.7758099999999999e+00 5.7758099999999999e+00
-5.7758099999999999e+00 5.7758099999999999e+00
ITEM: ATOMS id mol type x y z 
1 1 1 -0.084886 1.01294 5.26158 
2 1 1 0.555476 1.67273 5.51223 
3 1 1 0.353735 2.58455 5.38765 
4 1 1 -0.57038 2.57972 5.58671 
5 1 1 -1.01038 2.67276 -5.14776 
6 1 1 -0.704512 2.92106 -4.29487 
7 1 1 -0.596674 3.58487 -3.63638 
8 1 1 0.219591 4.1089 -3.57185 
9 1 1 0.639288 4.13001 -4.44963 
10 1 1 1.18574 4.90594 -4.66496 
11 1 1 1.93421 4.52883 -5.1621 
12 1 1 2.66941 5.13182 -4.87783 
13 1 1 3.09716 -5.76797 -4.33005 
14 1 1 2.93457 -5.74348 -3.37788 
15 1 1 2.93489 5.27526 -2.60129 
16 1 1 2.35527 4.52513 -2.33939 
17 1 1 2.18009 5.31627 -1.75849 
18 1 1 1.32239 5.5598 -2.17278 
19 1 1 1.16325 5.71467 -1.20397 
20 1 1 1.04318 5.55824 -0.235981 
21 1 1 1.86375 5.0567 -0.100093 
22 1 1 2.64312 4.74551 0.349174 
23 1 1 3.56435 4.77411 0.545231 
24 1 1 4.01918 4.81263 -0.30741 
25 1 1 3.83016 4.68602 -1.25239 
26 1 1 4.56085 4.17348 -1.71267 
27 1 1 4.4385 4.61504 -2.56566 
28 1 1 4.52793 5.52593 -2.82769 
29 1 1 5.34765 5.61722 -2.33456 
30 1 1 5.34467 5.38931 -1.37047 
ITEM: TIMESTEP
3000
ITEM: NUMBER OF ATOMS
30
ITEM: BOX BOUNDS pp pp pp
-5.7758099999999999e+00 5.7758099999999999e+00
-5.7758099999999999e+00 5.7758099999999999e+00
-5.7758099999999999e+00 5.7758099999999999e+00
ITEM: ATOMS id mol type x y z 
1 1 1 0.0174937 0.854343 4.99749 
2 1 1 0.441131 1.55164 5.39535 
3 1 1 0.318387 2.53562 5.45866 
4 1 1 -0.593256 2.28782 5.48428 
5 1 1 -1.12782 3.0031 -5.58591 
6 1 1 -0.781686 2.92409 -4.68008 
7 1 1 -0.5197 3.59998 -4.06723 
8 1 1 0.0398608 4.29794 -3.71928 
9 1 1 0.488123 4.72182 -4.45415 
10 1 1 1.01122 5.52857 -4.6493 
11 1 1 1.79502 4.97013 -4.51872 
12 1 1 2.48637 5.66835 -4.58288 
13 1 1 2.96558 -5.21351 -4.11342 
14 1 1 2.57358 -5.47863 -3.25137 
15 1 1 3.22566 5.69348 -2.64722 
16 1 1 2.79913 4.84124 -2.67402 
17 1 1 2.2591 4.73066 -1.82168 
18 1 1 1.42034 5.16821 -1.68217 
19 1 1 1.55939 -5.44237 -1.41606 
20 1 1 1.37351 5.53688 -0.676516 
21 1 1 1.94655 5.46081 0.109959 
22 1 1 2.39234 4.62297 0.211713 
23 1 1 3.3074 4.98515 0.16058 
24 1 1 3.6214 4.49309 -0.574507 
25 1 1 3.80686 4.61272 -1.49355 
26 1 1 4.27222 4.53991 -2.30068 
27 1 1 4.39588 4.96002 -3.17447 
28 1 1 4.99378 5.75373 -3.0592 
29 1 1 5.25798 5.75613 -2.11858 
30 1 1 4.49548 -5.63389 -1.55987 
ITEM: TIMESTEP
4000
ITEM: NUMBER OF ATOMS
30
ITEM: BOX BOUNDS pp pp pp
-5.7758099999999999e+00 5.7758099999999999e+00
-5.7758099999999999e+00 5.7758099999999999e+00
-5.7758099999999999e+00 5.7758099999999999e+00
ITEM: ATOMS id mol type x y z 
1 1 1 -0.162468 1.20409 4.8068 
2 1 1 0.289359 1.09431 5.64563 
3 1 1 -0.110693 1.96027 -5.70248 
4 1 1 -0.0544893 2.80114 5.39723 
5 1 1 -0.746735 3.18805 -5.52886 
6 1 1 -0.608238 3.18783 -4.62022 
7 1 1 -0.348648 3.6045 -3.75788 
8 1 1 -0.333357 4.5947 -3.86704 
9 1 1 0.150355 5.2558 -4.33893 
10 1 1 1.08925 5.56272 -4.45226 
11 1 1 1.92451 5.38178 -4.89852 
12 1 1 2.55978 -5.46114 -4.99495 
13 1 1 2.63886 -5.09679 -4.10289 
14 1 1 2.46073 -5.34784 -3.22538 
15 1 1 2.97096 5.78593 -2.57732 
16 1 1 2.3938 4.94952 -2.59764 
17 1 1 2.18902 4.46809 -1.79021 
18 1 1 1.41809 4.98321 -1.58089 
19 1 1 1.32861 -5.61907 -1.44145 
20 1 1 1.28009 -5.73045 -0.471409 
21 1 1 2.02505 -5.53235 0.164806 
22 1 1 2.6574 5.33538 0.375813 
23 1 1 3.51987 5.7056 0.0254262 
24 1 1 3.84761 4.91826 -0.440765 
25 1 1 3.62946 4.95936 -1.37829 
26 1 1 3.94607 4.75735 -2.30288 
27 1 1 4.19052 5.10935 -3.16979 
28 1 1 5.06299 5.53982 -3.16562 
29 1 1 4.93263 -5.61438 -2.30318 
30 1 1 4.32672 -5.28325 -1.62957 
ITEM: TIMESTEP
5000
ITEM: NUMBER OF ATOMS
30
ITEM: BOX BOUNDS pp pp pp
-5.7758099999999999e+00 5.7758099999999999e+00
-5.7758099999999999e+00 5.7758099999999999e+00
-5.7758099999999999e+00 5.7758099999999999e+00
ITEM: ATOMS id mol type x y z 
1 1 1 0.509762 1.3406 4.25671 
2 1 1 0.538843 1.55334 5.19346 
3 1 1 0.410451 1.96074 -5.49226 
4 1 1 -0.278304 2.5497 5.73178 
5 1 1 -0.899237 2.54591 -5.0959 
6 1 1 -0.256948 3.08836 -4.62395 
7 1 1 -0.438928 3.75268 -3.89829 
8 1 1 0.133456 4.55428 -3.81257 
9 1 1 -0.0635624 5.34134 -4.35804 
10 1 1 0.734747 -5.66845 -4.35316 
11 1 1 1.55674 5.76574 -4.88774 
12 1 1 2.52666 -5.51511 -4.73323 
13 1 1 3.08958 -5.58664 -3.97669 
14 1 1 2.66449 -5.3136 -3.17069 
15 1 1 2.63919 5.58695 -2.46425 
16 1 1 2.02704 4.8627 -2.4561 
17 1 1 2.17187 4.48632 -1.60269 
18 1 1 1.48469 4.67831 -0.987127 
19 1 1 1.07402 5.57508 -1.19538 
20 1 1 1.19053 -5.48582 -0.396723 
21 1 1 2.14313 -5.42071 -0.271618 
22 1 1 2.64043 5.34315 -0.0856352 
23 1 1 3.55696 5.3796 0.0214701 
24 1 1 3.9934 4.70727 -0.546758 
25 1 1 3.81175 4.65817 -1.47417 
26 1 1 3.92874 4.69166 -2.40457 
27 1 1 4.36913 5.2836 -3.02184 
28 1 1 5.1844 5.74927 -2.65937 
29 1 1 4.73534 -5.38058 -1.90389 
30 1 1 3.94321 -5.34626 -1.38719 
ITEM: TIMESTEP
6000
ITEM: NUMBER OF ATOMS
30
ITEM: BOX BOUNDS pp pp pp
-5.7758099999999999e+00 5.7758099999999999e+00
-5.7758099999999999e+00 5.7758099999999999e+00
-5.7758099999999999e+00 5.7758099999999999e+00
ITEM: ATOMS id mol type x y z 
1 1 1 0.86537 1.68778 4.24836 
2 1 1 0.636093 1.88719 5.1575 
3 1 1 0.603895 2.22641 -5.49237 
4 1 1 -0.0356332 2.77661 5.58189 
5 1 1 -0.504122 3.00606 -5.11769 
6 1 1 -0.0724918 3.38608 -4.3204 
7 1 1 -0.523783 3.99469 -3.74254 
8 1 1 0.0813352 4.76731 -3.70446 
9 1 1 0.201157 5.15788 -4.50846 
10 1 1 0.772382 -5.69822 -4.31341 
11 1 1 1.70849 -5.66396 -4.54519 
12 1 1 2.19966 5.20019 -4.16451 
13 1 1 2.9549 5.0588 -3.57197 
14 1 1 2.6538 5.56844 -2.78332 
15 1 1 2.49619 5.71172 -1.87308 
16 1 1 2.29012 4.75368 -1.89425 
17 1 1 1.79558 4.55028 -1.07674 
18 1 1 0.894282 4.66222 -1.1353 
19 1 1 0.763176 5.65121 -1.2438 
20 1 1 1.52007 -5.59945 -0.712686 
21 1 1 2.12544 -5.2765 -0.0957565 
22 1 1 2.5029 5.46583 -0.0151055 
23 1 1 3.41286 5.31938 -0.299637 
24 1 1 3.86562 4.49262 -0.458474 
25 1 1 3.92907 4.55606 -1.42547 
26 1 1 3.895 5.04091 -2.27514 
27 1 1 4.20048 5.65959 -2.96133 
28 1 1 4.80622 -5.17388 -2.7859 
29 1 1 4.74206 -4.60665 -1.98673 
30 1 1 4.40718 -5.28155 -1.37055 
ITEM: TIMESTEP
7000
ITEM: NUMBER OF ATOMS
30
ITEM: BOX BOUNDS pp pp pp
-5.7758099999999999e+00 5.7758099999999999e+00
-5.7758099999999999e+00 5.7758099999999999e+00
-5.7758099999999999e+00 5.7758099999999999e+00
ITEM: ATOMS id mol type x y z 
1 1 1 0.506812 1.44612 4.3983 
2 1 1 0.797078 2.30019 4.73024 
3 1 1 0.937741 2.52995 5.65623 
4 1 1 0.233805 3.21053 5.70452 
5 1 1 -0.107326 2.95124 -4.96398 
6 1 1 -0.224003 2.9898 -4.01045 
7 1 1 -0.35671 3.87876 -3.70958 
8 1 1 -0.188196 4.77506 -3.54191 
9 1 1 0.478275 5.03741 -4.18657 
10 1 1 1.08369 5.5825 -4.66349 
11 1 1 2.02427 5.52761 -4.77667 
12 1 1 2.47392 4.81703 -4.34013 
13 1 1 2.86745 5.3477 -3.58445 
14 1 1 2.5942 -5.71816 -2.81664 
15 1 1 2.45111 5.74469 -1.88717 
16 1 1 2.08841 4.90097 -1.55138 
17 1 1 1.39564 4.43993 -1.04654 
18 1 1 0.537021 4.86001 -1.02279 
19 1 1 0.842836 5.70298 -1.31017 
20 1 1 1.4171 -5.59376 -0.613832 
21 1 1 2.11661 -5.16608 -0.112545 
22 1 1 2.48306 5.50094 0.130781 
23 1 1 3.456 5.63817 0.0382032 
24 1 1 3.60847 4.73381 -0.242543 
25 1 1 3.42565 4.34925 -1.1068 
26 1 1 3.71628 4.86287 -1.86554 
27 1 1 4.0598 5.5661 -2.40355 
28 1 1 4.56117 -5.15257 -2.51313 
29 1 1 5.14422 -4.84612 -1.7636 
30 1 1 4.77492 -5.25315 -0.958905 
ITEM: TIMESTEP
8000
ITEM: NUMBER OF ATOMS
30
ITEM: BOX BOUNDS pp pp pp
-5.7758099999999999e+00 5.7758099999999999e+00
-5.7758099999999999e+00 5.7758099999999999e+00
-5.7758099999999999e+00 5.7758099999999999e+00
ITEM: ATOMS id mol type x y z 
1 1 1 1.27215 1.42412 4.58544 
2 1 1 1.38089 2.12795 5.19035 
3 1 1 0.636029 2.1128 -5.69593 
4 1 1 0.15419 2.90917 5.77828 
5 1 1 0.00548439 3.43653 -4.98256 
6 1 1 -0.124069 2.93692 -4.19834 
7 1 1 -0.335414 3.40978 -3.34232 
8 1 1 0.0797132 4.20817 -3.67833 
9 1 1 0.313246 4.94931 -4.28703 
10 1 1 1.15942 5.39034 -4.47408 
11 1 1 2.06514 5.6643 -4.59458 
12 1 1 2.68792 5.02635 -4.21167 
13 1 1 3.29836 5.24249 -3.47627 
14 1 1 2.7134 5.72581 -2.89023 
15 1 1 2.38565 5.64187 -1.94102 
16 1 1 2.01058 4.79367 -1.71082 
17 1 1 1.50535 4.42564 -0.977377 
18 1 1 0.600431 4.833 -1.04629 
19 1 1 1.0061 5.76249 -1.16562 
20 1 1 1.32618 -5.3403 -0.377954 
21 1 1 1.95988 -5.15098 0.309657 
22 1 1 2.5049 5.58536 0.375732 
23 1 1 2.99626 5.07014 -0.24484 
24 1 1 3.53467 4.47158 -0.747614 
25 1 1 3.41682 4.0238 -1.59644 
26 1 1 3.58752 4.79711 -2.20087 
27 1 1 3.90114 5.72265 -2.16898 
28 1 1 4.57209 -5.16845 -1.94323 
29 1 1 5.14616 -4.69277 -1.34893 
30 1 1 5.62757 -5.3911 -1.0011 
ITEM: TIMESTEP
9000
ITEM: NUMBER OF ATOMS
30
ITEM: BOX BOUNDS pp pp pp
-5.7758099999999999e+00 5.7758099999999999e+00
-5.7758099999999999e+00 5.7758099999999999e+00
-5.7758099999999999e+00 5.7758099999999999e+00
ITEM: ATOMS id mol type x y z 
1 1 1 1.65947 1.52173 4.57018 
2 1 1 1.78475 1.38965 5.53942 
3 1 1 1.18422 2.00441 -5.63988 
4 1 1 0.991927 2.98011 -5.72846 
5 1 1 0.27948 3.4901 -5.26147 
6 1 1 0.185457 2.98838 -4.37035 
7 1 1 -0.460553 3.60356 -4.10448 
8 1 1 0.120893 4.20286 -3.60721 
9 1 1 -0.0655118 5.00551 -4.02303 
10 1 1 0.839796 5.2729 -4.28843 
11 1 1 1.71469 5.57357 -4.28698 
12 1 1 2.55611 5.18769 -4.56746 
13 1 1 2.97543 5.56746 -3.79129 
14 1 1 2.70952 -5.68943 -2.93913 
15 1 1 2.43641 5.39805 -2.13258 
16 1 1 2.09719 4.97565 -1.37704 
17 1 1 2.06328 4.41901 -0.596947 
18 1 1 1.06815 4.48085 -0.432791 
19 1 1 0.811018 5.39878 -0.720226 
20 1 1 1.4632 -5.60791 -0.276048 
21 1 1 2.26584 -5.38203 0.227633 
22 1 1 3.09677 -5.68467 -0.0407783 
23 1 1 3.43797 5.16752 -0.66972 
24 1 1 3.63666 4.27908 -0.490615 
25 1 1 3.60623 3.78275 -1.29182 
26 1 1 4.10042 4.38973 -1.86777 
27 1 1 4.09839 5.27858 -2.18716 
28 1 1 4.84215 5.64449 -1.70502 
29 1 1 5.01841 -4.96569 -1.63742 
30 1 1 5.75249 -5.15971 -1.04935 
ITEM: TIMESTEP
10000
ITEM: NUMBER OF ATOMS
30
ITEM: BOX BOUNDS pp pp pp
-5.7758099999999999e+00 5.7758099999999999e+00
-5.7758099999999999e+00 5.7758099999999999e+00
-5.7758099999999999e+00 5.7758099999999999e+00
ITEM: ATOMS id mol type x y z 
1 1 1 2.00377 1.52236 4.43547 
2 1 1 1.70468 1.76756 5.34519 
3 1 1 1.45026 2.223 -5.43605 
4 1 1 0.523157 2.38342 -5.71385 
5 1 1 0.415382 3.22392 -5.21052 
6 1 1 0.0532856 2.60024 -4.55148 
7 1 1 -0.07777 3.12101 -3.7699 
8 1 1 0.409283 3.9398 -3.83592 
9 1 1 0.0950262 4.75935 -4.17988 
10 1 1 0.541945 5.55615 -3.91752 
11 1 1 1.42648 -5.75436 -4.18158 
12 1 1 2.38781 5.68645 -4.34418 
13 1 1 2.95347 5.71369 -3.56504 
14 1 1 2.91115 -5.68816 -2.59115 
15 1 1 2.77313 5.51777 -1.70791 
16 1 1 2.2887 4.71931 -1.72672 
17 1 1 2.14069 3.97054 -1.10339 
18 1 1 1.64635 4.33119 -0.383726 
19 1 1 0.946793 4.84237 -0.904241 
20 1 1 1.15428 5.68233 -0.560035 
21 1 1 1.85705 -5.30233 -0.370326 
22 1 1 2.73771 -5.64808 -0.204508 
23 1 1 3.04801 4.99599 -0.410844 
24 1 1 3.51448 4.2201 -0.23811 
25 1 1 3.65249 3.70334 -1.03913 
26 1 1 4.17885 4.01407 -1.78572 
27 1 1 4.07265 4.83604 -2.26098 
28 1 1 4.47335 5.46901 -1.66933 
29 1 1 5.01606 -5.28516 -1.52274 
30 1 1 5.6629 -4.91321 -0.88626 
ITEM: TIMESTEP
11000
ITEM: NUMBER OF ATOMS
30
ITEM: BOX BOUNDS pp pp pp
-5.7758099999999999e+00 5.7758099999999999e+00
-5.7758099999999999e+00 5.7758099999999999e+00
-5.7758099999999999e+00 5.7758099999999999e+00
ITEM: ATOMS id mol type x y z 
1 1 1 2.95861 1.45285 4.85162 
2 1 1 2.07082 1.39015 5.20383 
3 1 1 1.6224 2.1862 5.62254 
4 1 1 0.705979 2.25025 -5.66521 
5 1 1 0.6323 2.88052 -4.9412 
6 1 1 0.256431 2.53699 -4.1388 
7 1 1 0.261669 3.06751 -3.34177 
8 1 1 0.104342 3.97889 -3.14117 
9 1 1 0.191448 4.68298 -3.79608 
10 1 1 0.846282 5.34292 -3.86431 
11 1 1 1.17852 5.31074 -4.7598 
12 1 1 2.12085 5.34419 -4.73014 
13 1 1 2.37726 5.63525 -3.83022 
14 1 1 2.77943 5.62043 -2.96351 
15 1 1 2.96817 5.40612 -2.05561 
16 1 1 2.48682 4.75047 -1.57248 
17 1 1 2.07701 3.92678 -1.29293 
18 1 1 1.38786 4.27024 -0.733514 
19 1 1 0.722351 4.90358 -0.438128 
20 1 1 1.35353 5.58393 -0.664212 
21 1 1 2.17486 -5.65803 -0.291739 
22 1 1 3.09236 5.59837 -0.360826 
23 1 1 3.31029 4.65372 -0.0834134 
24 1 1 3.85283 3.8937 -0.0551413 
25 1 1 4.42053 3.43113 -0.650234 
26 1 1 4.43475 3.81082 -1.53729 
27 1 1 4.13516 4.70385 -1.53984 
28 1 1 4.69161 5.30089 -2.07323 
29 1 1 4.9188 -5.46681 -1.50097 
30 1 1 5.7115 -5.02437 -1.16617 
ITEM: TIMESTEP
12000
ITEM: NUMBER OF ATOMS
30
ITEM: BOX BOUNDS pp pp pp
-5.7758099999999999e+00 5.7758099999999999e+00
-5.7758099999999999e+00 5.7758099999999999e+00
-5.7758099999999999e+00 5.7758099999999999e+00
ITEM: ATOMS id mol type x y z 
1 1 1 2.4321 1.02447 5.2159 
2 1 1 1.64063 1.55919 5.2407 
3 1 1 1.38661 1.6231 -5.40553 
4 1 1 0.644826 2.22451 -5.37696 
5 1 1 0.611761 3.00189 -4.85466 
6 1 1 -0.0530783 2.76963 -4.20368 
7 1 1 -0.450281 3.28133 -3.47617 
8 1 1 0.145708 3.83085 -3.00354 
9 1 1 0.799966 4.45334 -3.30654 
10 1 1 0.776284 4.80503 -4.22163 
11 1 1 1.51159 4.96576 -4.83296 
12 1 1 2.21188 5.54758 -4.4963 
13 1 1 2.90759 5.58586 -3.85386 
14 1 1 2.47545 5.3867 -2.97617 
15 1 1 2.39457 5.06175 -2.08518 
16 1 1 2.35608 4.07993 -2.03172 
17 1 1 2.0983 4.11678 -1.08644 
18 1 1 1.87864 4.48973 -0.267594 
19 1 1 1.12141 5.09185 -0.403555 
20 1 1 1.43172 -5.63969 -0.791986 
21 1 1 2.29916 -5.4536 -0.393757 
22 1 1 2.90968 5.43665 -0.596143 
23 1 1 3.21022 4.71563 -0.0555992 
24 1 1 3.76651 3.88154 -0.316122 
25 1 1 3.93127 3.39837 -1.1619 
26 1 1 4.47106 4.0445 -1.6212 
27 1 1 3.85575 4.75704 -1.62076 
28 1 1 3.77482 5.68679 -1.88485 
29 1 1 4.39275 -5.12315 -1.98549 
30 1 1 5.1541 -5.49991 -1.59364 
ITEM: TIMESTEP
13000
ITEM: NUMBER OF ATOMS
30
ITEM: BOX BOUNDS pp pp pp
-5.7758099999999999e+00 5.7758099999999999e+00
-5.7758099999999999e+00 5.7758099999999999e+00
-5.7758099999999999e+00 5.7758099999999999e+00
ITEM: ATOMS id mol type x y z 
1 1 1 2.13697 1.17586 5.08811 
2 1 1 1.8395 1.98936 5.43557 
3 1 1 1.4697 1.60271 -5.31598 
4 1 1 0.630941 2.06028 -5.25757 
5 1 1 0.368331 2.57647 -4.47287 
6 1 1 -0.154323 2.40291 -3.67121 
7 1 1 -0.240464 3.24706 -3.25527 
8 1 1 0.641387 3.62557 -3.13096 
9 1 1 0.463826 4.54582 -3.33132 
10 1 1 0.680189 4.84787 -4.20706 
11 1 1 1.59626 4.8755 -4.35589 
12 1 1 2.31379 5.42894 -4.12748 
13 1 1 2.97758 5.095 -3.53851 
14 1 1 2.6885 5.19648 -2.64746 
15 1 1 2.39985 4.72305 -1.88062 
16 1 1 2.72202 3.82591 -1.64457 
17 1 1 2.27689 4.02339 -0.848727 
18 1 1 1.73198 4.58505 -0.316076 
19 1 1 1.13104 5.35357 -0.570412 
20 1 1 1.56505 -5.34731 -0.640295 
21 1 1 2.3915 -5.62374 -0.290619 
22 1 1 3.32248 -5.64523 -0.452076 
23 1 1 3.87207 5.10442 -0.490577 
24 1 1 3.67057 4.19927 -0.242136 
25 1 1 3.6362 3.36598 -0.653561 
26 1 1 4.54756 3.27715 -1.01471 
27 1 1 4.32564 3.95043 -1.68566 
28 1 1 3.92685 4.82985 -1.70524 
29 1 1 4.40631 5.63395 -1.99404 
30 1 1 5.2961 5.58545 -1.59406 
ITEM: TIMESTEP
14000
ITEM: NUMBER OF ATOMS
30
ITEM: BOX BOUNDS pp pp pp
-5.7758099999999999e+00 5.7758099999999999e+00
-5.7758099999999999e+00 5.7758099999999999e+00
-5.7758099999999999e+00 5.7758099999999999e+00
ITEM: ATOMS id mol type x y z 
1 1 1 1.57563 1.19713 4.74212 
2 1 1 1.52996 1.36046 5.68634 
3 1 1 0.962852 1.1062 -5.13141 
4 1 1 0.172482 1.64094 -5.35342 
5 1 1 0.255643 2.16652 -4.5716 
6 1 1 0.0315324 2.8404 -3.88762 
7 1 1 0.170112 3.36247 -3.09186 
8 1 1 0.745998 3.9869 -3.51071 
9 1 1 0.310354 4.81725 -3.66328 
10 1 1 0.915055 4.96502 -4.37233 
11 1 1 1.83821 4.7354 -4.16598 
12 1 1 2.64777 5.21877 -3.95261 
13 1 1 2.41525 5.31504 -3.01286 
14 1 1 3.19984 4.99277 -2.59185 
15 1 1 2.99645 4.06167 -2.55004 
16 1 1 2.58714 3.75969 -1.74214 
17 1 1 2.62559 4.29474 -0.962939 
18 1 1 1.81313 4.70362 -0.689196 
19 1 1 1.3384 5.46051 -1.0975 
20 1 1 2.00823 -5.36081 -0.890284 
21 1 1 2.49032 -5.31247 -0.106747 
22 1 1 3.36651 -5.59195 -0.462227 
23 1 1 3.76311 5.17395 -0.76858 
24 1 1 4.02466 4.51507 -0.10865 
25 1 1 3.80379 3.6123 0.105819 
26 1 1 3.88985 3.09108 -0.716255 
27 1 1 4.18071 3.70352 -1.42887 
28 1 1 4.41335 4.44053 -1.95399 
29 1 1 5.0226 5.19438 -1.90316 
30 1 1 5.26535 5.38404 -0.973777 
ITEM: TIMESTEP
15000
ITEM: NUMBER OF ATOMS
30
ITEM: BOX BOUNDS pp pp pp
-5.7758099999999999e+00 5.7758099999999999e+00
-5.7758099999999999e+00 5.7758099999999999e+00
-5.7758099999999999e+00 5.7758099999999999e+00
ITEM: ATOMS id mol type x y z 
1 1 1 1.69981 0.975304 4.42607 
2 1 1 1.72521 1.6533 5.09883 
3 1 1 1.58659 1.26071 -5.59639 
4 1 1 0.724468 1.46983 -5.13474 
5 1 1 0.132494 1.93232 -4.4819 
6 1 1 -0.419941 2.50976 -3.94595 
7 1 1 -0.239206 3.04221 -3.18027 
8 1 1 0.369898 3.7795 -3.40091 
9 1 1 0.546465 4.67562 -3.66648 
10 1 1 0.727917 4.7846 -4.58081 
11 1 1 1.66816 5.00968 -4.71897 
12 1 1 1.9156 5.42095 -3.85809 
13 1 1 1.76693 5.13013 -2.90951 
14 1 1 2.64332 4.84417 -2.78249 
15 1 1 3.13522 4.05694 -2.58115 
16 1 1 2.57197 3.5855 -1.93496 
17 1 1 2.17148 4.33096 -1.46598 
18 1 1 1.48274 4.71199 -0.902451 
19 1 1 1.42613 5.62651 -0.639843 
20 1 1 1.80024 -5.16581 -0.210354 
21 1 1 2.66894 -4.91055 -0.508343 
22 1 1 3.37634 -5.48968 -0.622557 
23 1 1 3.56534 5.25903 -1.07963 
24 1 1 3.55383 4.49637 -0.559232 
25 1 1 3.68235 3.73677 0.0437044 
26 1 1 3.70037 3.4848 -0.893783 
27 1 1 4.65964 3.3466 -0.893017 
28 1 1 5.05308 3.88936 -1.56481 
29 1 1 4.73458 4.8027 -1.71345 
30 1 1 5.23992 5.31137 -1.12723 
ITEM: TIMESTEP
16000
ITEM: NUMBER OF ATOMS
30
ITEM: BOX BOUNDS pp pp pp
-5.7758099999999999e+00 5.7758099999999999e+00
-5.7758099999999999e+00 5.7758099999999999e+00
-5.7758099999999999e+00 5.7758099999999999e+00
ITEM: ATOMS id mol type x y z 
1 1 1 1.39958 0.957091 4.35546 
2 1 1 1.62838 1.68795 4.90976 
3 1 1 1.35327 1.38397 -5.74639 
4 1 1 0.909618 1.77562 -5.00189 
5 1 1 0.195666 2.37884 -4.73133 
6 1 1 -0.463784 2.33558 -4.02435 
7 1 1 -0.634065 3.0922 -3.45489 
8 1 1 0.245648 3.47846 -3.56472 
9 1 1 0.452167 4.43586 -3.57745 
10 1 1 0.918081 4.574 -4.41604 
11 1 1 1.78238 5.02518 -4.57842 
12 1 1 1.62728 5.62924 -3.87472 
13 1 1 2.03819 4.87284 -3.42291 
14 1 1 2.81617 4.78272 -2.91653 
15 1 1 2.79771 3.90084 -2.54989 
16 1 1 2.65283 3.51126 -1.70051 
17 1 1 2.595 4.20659 -1.06856 
18 1 1 1.75118 4.73107 -1.09198 
19 1 1 2.12448 5.57401 -0.78779 
20 1 1 1.78969 -5.30318 -0.193915 
21 1 1 2.62512 -4.85939 0.136374 
22 1 1 3.45107 -5.26181 -0.249462 
23 1 1 3.6738 5.59461 -0.912344 
24 1 1 3.82189 4.72486 -0.428575 
25 1 1 3.68518 3.87874 0.025656 
26 1 1 3.94948 3.52243 -0.831452 
27 1 1 4.88944 3.6788 -0.830658 
28 1 1 4.96096 3.98664 -1.7666 
29 1 1 5.0774 4.95232 -1.73273 
30 1 1 5.32949 5.46937 -0.973157 
ITEM: TIMESTEP
17000
ITEM: NUMBER OF ATOMS
30
ITEM: BOX BOUNDS pp pp pp
-5.7758099999999999e+00 5.7758099999999999e+00
-5.7758099999999999e+00 5.7758099999999999e+00
-5.7758099999999999e+00 5.7758099999999999e+00
ITEM: ATOMS id mol type x y z 
1 1 1 1.18133 0.238165 4.65152 
2 1 1 1.4457 0.887754 5.35346 
3 1 1 1.69662 1.40662 -5.41841 
4 1 1 0.978894 1.82368 -4.96668 
5 1 1 0.095176 2.27116 -5.14843 
6 1 1 -0.585351 2.25724 -4.50049 
7 1 1 0.0425968 2.5779 -3.81683 
8 1 1 0.138668 3.54345 -4.06551 
9 1 1 0.690912 4.28379 -3.88151 
10 1 1 0.713287 4.81573 -4.66253 
11 1 1 1.64341 4.72037 -4.30206 
12 1 1 2.01403 5.39374 -3.70534 
13 1 1 2.52563 5.09994 -2.95383 
14 1 1 2.8623 4.58774 -2.21776 
15 1 1 3.18931 3.65013 -2.14812 
16 1 1 2.76269 3.25483 -1.33568 
17 1 1 2.51865 4.07564 -0.828831 
18 1 1 1.75992 4.68401 -1.02846 
19 1 1 1.8998 5.461 -0.520578 
20 1 1 1.62259 -5.2768 -0.111855 
21 1 1 2.39654 -4.89734 0.308011 
22 1 1 3.25519 -5.1897 0.0325129 
23 1 1 3.46815 5.60758 -0.510349 
24 1 1 3.91088 4.81796 -0.209936 
25 1 1 3.72665 3.88086 -0.158627 
26 1 1 4.34888 3.34175 -0.668576 
27 1 1 5.13863 3.23216 -1.21228 
28 1 1 5.31803 4.15497 -1.50611 
29 1 1 5.27604 5.10716 -1.39116 
30 1 1 5.14848 -5.60465 -0.93316 
ITEM: TIMESTEP
18000
ITEM: NUMBER OF ATOMS
30
ITEM: BOX BOUNDS pp pp pp
-5.7758099999999999e+00 5.7758099999999999e+00
-5.7758099999999999e+00 5.7758099999999999e+00
-5.7758099999999999e+00 5.7758099999999999e+00
ITEM: ATOMS id mol type x y z 
1 1 1 0.979578 0.361562 4.46901 
2 1 1 0.863715 0.772697 5.32324 
3 1 1 1.41301 1.084 -5.48433 
4 1 1 0.854807 1.79526 -5.05111 
5 1 1 0.0795814 2.37227 -5.06586 
6 1 1 -0.619162 2.51501 -4.48018 
7 1 1 -0.346802 3.33818 -4.06642 
8 1 1 0.345239 4.0061 -3.94975 
9 1 1 1.28307 4.17142 -3.85742 
10 1 1 1.30218 4.65737 -4.68161 
11 1 1 2.22096 4.81676 -4.85675 
12 1 1 2.27218 5.36364 -4.08662 
13 1 1 2.85998 5.28532 -3.3047 
14 1 1 2.30407 4.98414 -2.59567 
15 1 1 2.6976 4.11972 -2.46103 
16 1 1 2.97561 3.71869 -1.63351 
17 1 1 2.31457 3.97878 -1.04149 
18 1 1 2.0993 4.83178 -0.64014 
19 1 1 1.61445 5.5703 -0.896533 
20 1 1 1.49022 -5.36566 -0.163889 
21 1 1 2.18942 -5.20158 0.497156 
22 1 1 2.9863 -5.13698 -0.0392128 
23 1 1 3.23805 5.70432 -0.666799 
24 1 1 3.62066 5.03424 -0.135027 
25 1 1 3.3603 4.13648 0.157889 
26 1 1 3.95057 3.58661 -0.420079 
27 1 1 4.85599 3.48379 -0.756866 
28 1 1 5.72447 3.82423 -0.990645 
29 1 1 5.49399 4.74548 -1.32932 
30 1 1 5.03249 5.19664 -0.592055 
ITEM: TIMESTEP
19000
ITEM: NUMBER OF ATOMS
30
ITEM: BOX BOUNDS pp pp pp
-5.7758099999999999e+00 5.7758099999999999e+00
-5.7758099999999999e+00 5.7758099999999999e+00
-5.7758099999999999e+00 5.7758099999999999e+00
ITEM: ATOMS id mol type x y z 
1 1 1 1.40838 0.381111 4.62072 
2 1 1 1.43137 0.975584 5.44514 
3 1 1 1.51864 1.01547 -5.16142 
4 1 1 0.779669 1.5038 -4.82475 
5 1 1 -0.181535 1.5286 -4.66881 
6 1 1 -0.389314 1.97051 -3.84761 
7 1 1 0.0697416 2.8215 -3.79452 
8 1 1 0.496208 3.70116 -3.87581 
9 1 1 1.33927 3.63469 -4.19181 
10 1 1 1.79393 4.07841 -4.91357 
11 1 1 2.5184 4.70485 -4.91744 
12 1 1 2.84842 5.1536 -4.12527 
13 1 1 2.88605 4.84655 -3.21771 
14 1 1 2.07514 4.52652 -2.82759 
15 1 1 2.33327 3.57208 -2.72683 
16 1 1 2.80628 3.81138 -1.89758 
17 1 1 2.29086 4.04824 -1.15667 
18 1 1 1.65837 4.79919 -1.13135 
19 1 1 1.4561 5.70243 -0.780746 
20 1 1 1.368 -5.34589 0.0129884 
21 1 1 1.91622 -4.56111 0.0999612 
22 1 1 2.73703 -5.03197 0.240179 
23 1 1 2.7499 5.65683 -0.212422 
24 1 1 3.3796 5.28083 0.379047 
25 1 1 3.00166 4.41988 0.225464 
26 1 1 3.34874 3.606 -0.0993086 
27 1 1 4.24229 3.64314 -0.353248 
28 1 1 4.71471 3.87129 -1.11373 
29 1 1 5.11831 4.7561 -1.26277 
30 1 1 5.2429 5.31853 -0.499135 
ITEM: TIMESTEP
20000
ITEM: NUMBER OF ATOMS
30
ITEM: BOX BOUNDS pp pp pp
-5.7758099999999999e+00 5.7758099999999999e+00
-5.7758099999999999e+00 5.7758099999999999e+00
-5.7758099999999999e+00 5.7758099999999999e+00
ITEM: ATOMS id mol type x y z 
1 1 1 1.49599 0.362073 4.79913 
2 1 1 1.34226 1.18172 5.29607 
3 1 1 0.951993 1.03767 -5.42562 
4 1 1 0.0383452 0.972032 -5.12251 
5 1 1 -0.524499 1.11264 -4.35232 
6 1 1 -0.139256 1.93115 -4.03892 
7 1 1 0.46089 2.47415 -3.50278 
8 1 1 0.633143 3.40643 -3.77509 
9 1 1 1.48881 3.71422 -4.0795 
10 1 1 1.86158 4.00731 -4.87838 
11 1 1 2.04539 4.99106 -4.88139 
12 1 1 2.45798 5.05576 -4.01478 
13 1 1 2.82729 5.03635 -3.15524 
14 1 1 2.08799 4.53575 -2.80146 
15 1 1 2.28142 3.66506 -2.48911 
16 1 1 2.83614 3.6869 -1.72148 
17 1 1 2.35423 4.35206 -1.18649 
18 1 1 1.79414 5.11369 -1.2281 
19 1 1 1.47092 -5.58238 -0.875761 
20 1 1 1.52755 -5.17286 0.0114795 
21 1 1 2.20003 -4.47143 -0.0904133 
22 1 1 3.1096 -4.55986 -0.321273 
23 1 1 2.98152 -5.49679 -0.452535 
24 1 1 2.81396 5.2681 0.13815 
25 1 1 2.89604 4.29211 0.117785 
26 1 1 3.81095 4.00859 -0.0109557 
27 1 1 4.72633 4.19976 0.225913 
28 1 1 5.35123 4.39479 -0.528821 
29 1 1 5.60716 5.30992 -0.331118 
30 1 1 5.20183 -5.47941 0.0967134 
ITEM: TIMESTEP
21000
ITEM: NUMBER OF ATOMS
30
ITEM: BOX BOUNDS pp pp pp
-5.7758099999999999e+00 5.7758099999999999e+00
-5.7758099999999999e+00 5.7758099999999999e+00
-5.7758099999999999e+00 5.7758099999999999e+00
ITEM: ATOMS id mol type x y z 
1 1 1 1.33374 0.575776 4.86034 
2 1 1 1.09039 0.755221 5.76725 
3 1 1 0.758426 0.606696 -4.9363 
4 1 1 0.00882384 0.81151 -4.41828 
5 1 1 0.0127694 1.49218 -3.73817 
6 1 1 -0.0712386 2.41703 -3.63989 
7 1 1 0.751726 2.53439 -3.09826 
8 1 1 1.11248 3.4493 -3.11112 
9 1 1 0.9133 3.75085 -3.99496 
10 1 1 1.66381 4.31067 -4.26663 
11 1 1 2.13019 5.12949 -4.52312 
12 1 1 2.72631 5.37693 -3.83477 
13 1 1 2.36414 5.15735 -2.96907 
14 1 1 2.3959 4.19496 -2.95035 
15 1 1 2.40119 3.53438 -2.21923 
16 1 1 2.58565 3.90717 -1.36234 
17 1 1 2.45646 4.8655 -1.37509 
18 1 1 1.98259 5.3765 -0.732695 
19 1 1 2.19207 -5.2544 -0.610466 
20 1 1 2.00499 -4.67024 0.109847 
21 1 1 2.71245 -4.04145 -0.0313111 
22 1 1 3.11664 -4.80583 -0.498976 
23 1 1 3.67557 -5.45439 -0.191541 
24 1 1 3.30492 5.18215 -0.215499 
25 1 1 3.23608 4.20128 -0.165562 
26 1 1 3.78634 3.50254 -0.512623 
27 1 1 4.47601 3.90976 0.0494966 
28 1 1 5.32278 3.78751 -0.358619 
29 1 1 5.62481 4.67523 -0.332274 
30 1 1 4.89017 5.31414 -0.202089 
ITEM: TIMESTEP
22000
ITEM: NUMBER OF ATOMS
30
ITEM: BOX BOUNDS pp pp pp
-5.7758099999999999e+00 5.7758099999999999e+00
-5.7758099999999999e+00 5.7758099999999999e+00
-5.7758099999999999e+00 5.7758099999999999e+00
ITEM: ATOMS id mol type x y z 
1 1 1 1.53072 -0.113228 4.99757 
2 1 1 1.27666 0.322071 -5.73297 
3 1 1 0.595751 0.376714 -5.07761 
4 1 1 0.204979 1.05246 -4.48104 
5 1 1 -0.0998047 1.7665 -3.92906 
6 1 1 0.0674757 2.21096 -3.05737 
7 1 1 0.772374 2.52127 -2.45685 
8 1 1 0.933944 3.42416 -2.50234 
9 1 1 1.31933 3.64382 -3.33596 
10 1 1 1.43207 4.05546 -4.22405 
11 1 1 1.77333 4.73371 -4.78335 
12 1 1 2.03269 5.26401 -3.98502 
13 1 1 2.19174 4.90873 -3.11041 
14 1 1 2.43629 4.12458 -2.63398 
15 1 1 2.84982 3.45376 -2.11038 
16 1 1 2.77756 3.89519 -1.24507 
17 1 1 2.21336 4.69475 -1.27953 
18 1 1 1.91677 5.54082 -0.946506 
19 1 1 1.51023 -5.20833 -1.1748 
20 1 1 1.63244 -4.61599 -0.42008 
21 1 1 2.59528 -4.66055 -0.139883 
22 1 1 3.05953 -5.05372 -0.88387 
23 1 1 3.90678 -5.38692 -0.457125 
24 1 1 3.52803 5.27673 -0.385072 
25 1 1 3.29934 4.67067 0.275557 
26 1 1 4.01441 3.96193 0.114988 
27 1 1 4.7201 4.00754 -0.493418 
28 1 1 5.56597 3.88137 -0.977501 
29 1 1 -5.52039 4.7698 -0.966315 
30 1 1 5.54484 5.33611 -0.338176 
ITEM: TIMESTEP
23000
ITEM: NUMBER OF ATOMS
30
ITEM: BOX BOUNDS pp pp pp
-5.7758099999999999e+00 5.7758099999999999e+00
-5.7758099999999999e+00 5.7758099999999999e+00
-5.7758099999999999e+00 5.7758099999999999e+00
ITEM: ATOMS id mol type x y z 
1 1 1 1.60574 0.175168 4.83875 
2 1 1 0.973309 0.785105 5.26591 
3 1 1 0.488132 0.780568 -5.49801 
4 1 1 0.416214 1.17741 -4.63282 
5 1 1 0.117658 1.94011 -4.16995 
6 1 1 0.481444 1.76805 -3.25644 
7 1 1 0.912032 2.10389 -2.48601 
8 1 1 0.906876 2.96479 -2.9563 
9 1 1 1.31316 3.56575 -3.67348 
10 1 1 1.4725 4.05481 -4.47729 
11 1 1 1.83325 4.88106 -4.68038 
12 1 1 2.01005 5.25314 -3.83573 
13 1 1 2.24 4.72824 -3.03882 
14 1 1 2.72481 3.91865 -2.86589 
15 1 1 3.31348 3.5637 -2.20764 
16 1 1 3.19852 4.22753 -1.53761 
17 1 1 2.40125 4.71123 -1.40228 
18 1 1 1.9559 5.41086 -0.833243 
19 1 1 1.30584 -5.64378 -0.321064 
20 1 1 1.56797 -4.76389 -0.147039 
21 1 1 2.46519 -4.53078 -0.0164456 
22 1 1 3.35029 -4.5821 -0.364385 
23 1 1 3.82648 -5.34936 -0.612404 
24 1 1 3.57361 5.34321 -0.31475 
25 1 1 3.54435 4.61269 0.374801 
26 1 1 3.72375 3.77408 -0.0344364 
27 1 1 4.62665 3.73604 -0.29998 
28 1 1 5.12948 3.69427 -1.12176 
29 1 1 -5.66077 4.26743 -1.12766 
30 1 1 -5.43322 4.90249 -0.480146 
ITEM: TIMESTEP
24000
ITEM: NUMBER OF ATOMS
30
ITEM: BOX BOUNDS pp pp pp
-5.7758099999999999e+00 5.7758099999999999e+00
-5.7758099999999999e+00 5.7758099999999999e+00
-5.7758099999999999e+00 5.7758099999999999e+00
ITEM: ATOMS id mol type x y z 
1 1 1 1.37929 0.201151 5.37831 
2 1 1 0.625147 0.806203 5.47806 