LAMMPS data file via write_data, version 31 Mar 2017, timestep = 5000000

2101 atoms
5 atom types
1740 bonds
1 bond types

-7.8750000000000000e+00 7.8750000000000000e+00 xlo xhi
-9.0932499999999994e+00 9.0932499999999994e+00 ylo yhi
-3.0000000000000000e+00 4.0000000000000000e+01 zlo zhi

Masses

1 1
2 1
3 1
4 1
5 1

Pair Coeffs # lj/expand

1 1 1 0
2 1 1 0
3 1 1 0
4 0 0 0
5 1 1 3

Bond Coeffs # fene

1 30 1.5 1 1

Atoms # bond

1801 61 4 -7.8750000000000000e+00 -9.0932499999999994e+00 0.0000000000000000e+00 0 0 0
1802 62 4 -7.8750000000000000e+00 -7.2746000000000004e+00 0.0000000000000000e+00 0 0 0
1811 71 4 -7.3499999999999996e+00 -8.1839300000000001e+00 0.0000000000000000e+00 0 0 0
1821 81 4 -6.8250000000000002e+00 -9.0932499999999994e+00 0.0000000000000000e+00 0 0 0
1822 82 4 -6.8250000000000002e+00 -7.2746000000000004e+00 0.0000000000000000e+00 0 0 0
1831 91 4 -6.2999999999999998e+00 -8.1839300000000001e+00 0.0000000000000000e+00 0 0 0
1841 101 4 -5.7750000000000004e+00 -9.0932499999999994e+00 0.0000000000000000e+00 0 0 0
1842 102 4 -5.7750000000000004e+00 -7.2746000000000004e+00 0.0000000000000000e+00 0 0 0
1851 111 4 -5.2500000000000000e+00 -8.1839300000000001e+00 0.0000000000000000e+00 0 0 0
1812 72 4 -7.3499999999999996e+00 -6.3652800000000003e+00 0.0000000000000000e+00 0 0 0
1832 92 4 -6.2999999999999998e+00 -6.3652800000000003e+00 0.0000000000000000e+00 0 0 0
1852 112 4 -5.2500000000000000e+00 -6.3652800000000003e+00 0.0000000000000000e+00 0 0 0
1861 121 4 -4.7249999999999996e+00 -9.0932499999999994e+00 0.0000000000000000e+00 0 0 0
1862 122 4 -4.7249999999999996e+00 -7.2746000000000004e+00 0.0000000000000000e+00 0 0 0
1871 131 4 -4.2000000000000002e+00 -8.1839300000000001e+00 0.0000000000000000e+00 0 0 0
1881 141 4 -3.6749999999999998e+00 -9.0932499999999994e+00 0.0000000000000000e+00 0 0 0
1882 142 4 -3.6749999999999998e+00 -7.2746000000000004e+00 0.0000000000000000e+00 0 0 0
1891 151 4 -3.1499999999999999e+00 -8.1839300000000001e+00 0.0000000000000000e+00 0 0 0
1901 161 4 -2.6250000000000000e+00 -9.0932499999999994e+00 0.0000000000000000e+00 0 0 0
1902 162 4 -2.6250000000000000e+00 -7.2746000000000004e+00 0.0000000000000000e+00 0 0 0
1872 132 4 -4.2000000000000002e+00 -6.3652800000000003e+00 0.0000000000000000e+00 0 0 0
1892 152 4 -3.1499999999999999e+00 -6.3652800000000003e+00 0.0000000000000000e+00 0 0 0
124 5 2 -3.4106637914199172e+00 -6.3542361070546018e+00 1.1974058587138512e+00 0 0 0
123 5 2 -2.5225943286155559e+00 -6.6653506386633055e+00 8.9088064802840838e-01 0 0 0
1911 171 4 -2.1000000000000001e+00 -8.1839300000000001e+00 0.0000000000000000e+00 0 0 0
1921 181 4 -1.5750000000000000e+00 -9.0932499999999994e+00 0.0000000000000000e+00 0 0 0
1922 182 4 -1.5750000000000000e+00 -7.2746000000000004e+00 0.0000000000000000e+00 0 0 0
1931 191 4 -1.0500000000000000e+00 -8.1839300000000001e+00 0.0000000000000000e+00 0 0 0
1942 202 4 -5.2500000000000002e-01 -7.2746000000000004e+00 0.0000000000000000e+00 0 0 0
1941 201 4 -5.2500000000000002e-01 -9.0932499999999994e+00 0.0000000000000000e+00 0 0 0
1951 211 4 0.0000000000000000e+00 -8.1839300000000001e+00 0.0000000000000000e+00 0 0 0
1912 172 4 -2.1000000000000001e+00 -6.3652800000000003e+00 0.0000000000000000e+00 0 0 0
1932 192 4 -1.0500000000000000e+00 -6.3652800000000003e+00 0.0000000000000000e+00 0 0 0
1952 212 4 0.0000000000000000e+00 -6.3652800000000003e+00 0.0000000000000000e+00 0 0 0
1803 63 4 -7.8750000000000000e+00 -5.4559499999999996e+00 0.0000000000000000e+00 0 0 0
1823 83 4 -6.8250000000000002e+00 -5.4559499999999996e+00 0.0000000000000000e+00 0 0 0
1843 103 4 -5.7750000000000004e+00 -5.4559499999999996e+00 0.0000000000000000e+00 0 0 0
1813 73 4 -7.3499999999999996e+00 -4.5466300000000004e+00 0.0000000000000000e+00 0 0 0
1833 93 4 -6.2999999999999998e+00 -4.5466300000000004e+00 0.0000000000000000e+00 0 0 0
1853 113 4 -5.2500000000000000e+00 -4.5466300000000004e+00 0.0000000000000000e+00 0 0 0
1804 64 4 -7.8750000000000000e+00 -3.6373000000000002e+00 0.0000000000000000e+00 0 0 0
1824 84 4 -6.8250000000000002e+00 -3.6373000000000002e+00 0.0000000000000000e+00 0 0 0
1844 104 4 -5.7750000000000004e+00 -3.6373000000000002e+00 0.0000000000000000e+00 0 0 0
1863 123 4 -4.7249999999999996e+00 -5.4559499999999996e+00 0.0000000000000000e+00 0 0 0
1883 143 4 -3.6749999999999998e+00 -5.4559499999999996e+00 0.0000000000000000e+00 0 0 0
1903 163 4 -2.6250000000000000e+00 -5.4559499999999996e+00 0.0000000000000000e+00 0 0 0
1873 133 4 -4.2000000000000002e+00 -4.5466300000000004e+00 0.0000000000000000e+00 0 0 0
1893 153 4 -3.1499999999999999e+00 -4.5466300000000004e+00 0.0000000000000000e+00 0 0 0
1864 124 4 -4.7249999999999996e+00 -3.6373000000000002e+00 0.0000000000000000e+00 0 0 0
1884 144 4 -3.6749999999999998e+00 -3.6373000000000002e+00 0.0000000000000000e+00 0 0 0
1904 164 4 -2.6250000000000000e+00 -3.6373000000000002e+00 0.0000000000000000e+00 0 0 0
1923 183 4 -1.5750000000000000e+00 -5.4559499999999996e+00 0.0000000000000000e+00 0 0 0
1943 203 4 -5.2500000000000002e-01 -5.4559499999999996e+00 0.0000000000000000e+00 0 0 0
1913 173 4 -2.1000000000000001e+00 -4.5466300000000004e+00 0.0000000000000000e+00 0 0 0
1933 193 4 -1.0500000000000000e+00 -4.5466300000000004e+00 0.0000000000000000e+00 0 0 0
1924 184 4 -1.5750000000000000e+00 -3.6373000000000002e+00 0.0000000000000000e+00 0 0 0
1944 204 4 -5.2500000000000002e-01 -3.6373000000000002e+00 0.0000000000000000e+00 0 0 0
1953 213 4 0.0000000000000000e+00 -4.5466300000000004e+00 0.0000000000000000e+00 0 0 0
1814 74 4 -7.3499999999999996e+00 -2.7279800000000001e+00 0.0000000000000000e+00 0 0 0
1834 94 4 -6.2999999999999998e+00 -2.7279800000000001e+00 0.0000000000000000e+00 0 0 0
1854 114 4 -5.2500000000000000e+00 -2.7279800000000001e+00 0.0000000000000000e+00 0 0 0
1805 65 4 -7.8750000000000000e+00 -1.8186500000000001e+00 0.0000000000000000e+00 0 0 0
1815 75 4 -7.3499999999999996e+00 -9.0932999999999997e-01 0.0000000000000000e+00 0 0 0
1825 85 4 -6.8250000000000002e+00 -1.8186500000000001e+00 0.0000000000000000e+00 0 0 0
1835 95 4 -6.2999999999999998e+00 -9.0932999999999997e-01 0.0000000000000000e+00 0 0 0
1845 105 4 -5.7750000000000004e+00 -1.8186500000000001e+00 0.0000000000000000e+00 0 0 0
1855 115 4 -5.2500000000000000e+00 -9.0932999999999997e-01 0.0000000000000000e+00 0 0 0
1874 134 4 -4.2000000000000002e+00 -2.7279800000000001e+00 0.0000000000000000e+00 0 0 0
1894 154 4 -3.1499999999999999e+00 -2.7279800000000001e+00 0.0000000000000000e+00 0 0 0
1865 125 4 -4.7249999999999996e+00 -1.8186500000000001e+00 0.0000000000000000e+00 0 0 0
1875 135 4 -4.2000000000000002e+00 -9.0932999999999997e-01 0.0000000000000000e+00 0 0 0
1885 145 4 -3.6749999999999998e+00 -1.8186500000000001e+00 0.0000000000000000e+00 0 0 0
1895 155 4 -3.1499999999999999e+00 -9.0932999999999997e-01 0.0000000000000000e+00 0 0 0
1905 165 4 -2.6250000000000000e+00 -1.8186500000000001e+00 0.0000000000000000e+00 0 0 0
1914 174 4 -2.1000000000000001e+00 -2.7279800000000001e+00 0.0000000000000000e+00 0 0 0
1934 194 4 -1.0500000000000000e+00 -2.7279800000000001e+00 0.0000000000000000e+00 0 0 0
1954 214 4 0.0000000000000000e+00 -2.7279800000000001e+00 0.0000000000000000e+00 0 0 0
1915 175 4 -2.1000000000000001e+00 -9.0932999999999997e-01 0.0000000000000000e+00 0 0 0
1925 185 4 -1.5750000000000000e+00 -1.8186500000000001e+00 0.0000000000000000e+00 0 0 0
1935 195 4 -1.0500000000000000e+00 -9.0932999999999997e-01 0.0000000000000000e+00 0 0 0
1945 205 4 -5.2500000000000002e-01 -1.8186500000000001e+00 0.0000000000000000e+00 0 0 0
1955 215 4 0.0000000000000000e+00 -9.0932999999999997e-01 0.0000000000000000e+00 0 0 0
722 25 2 -5.0745295267761736e-01 -3.8678341955404577e-01 1.1477807978233667e+00 0 0 0
31 2 1 -5.9062500000000000e+00 -8.3354800000000004e+00 1.6875024916199077e+00 0 0 0
32 2 2 -6.4959302146375366e+00 -8.8080816325376965e+00 2.2338651861264092e+00 0 0 0
63 3 2 -5.2665588587966488e+00 -6.3423087871891557e+00 2.3038485351591840e+00 0 0 0
1 1 1 -7.4812500000000002e+00 -6.8199399999999999e+00 1.6875024916199077e+00 0 0 0
4 1 2 -7.1653090737367151e+00 -7.1130013266231833e+00 3.6847092236419372e+00 0 0 0
2 1 2 -7.6555256971896171e+00 -7.2114310978209630e+00 2.5338032499166077e+00 0 0 0
33 2 2 -6.3520296750147107e+00 -8.6551882578959454e+00 3.0932741557152070e+00 0 0 0
125 5 2 -3.0710020329241354e+00 -7.1059121295552581e+00 1.7204984776615777e+00 0 0 0
129 5 2 -5.0394180203858072e+00 -8.6479470101964822e+00 3.5466993542293248e+00 0 0 0
128 5 2 -4.4173971384003456e+00 -7.8715601834884366e+00 3.4994562792757802e+00 0 0 0
91 4 1 -2.7562500000000001e+00 -8.3354800000000004e+00 1.6875024916199077e+00 0 0 0
127 5 2 -4.3380996023573912e+00 -8.0893808567510241e+00 2.5193937094219869e+00 0 0 0
126 5 2 -3.7187398982177426e+00 -7.7828221577011441e+00 1.8328170161462396e+00 0 0 0
64 3 2 -4.8314731425680391e+00 -6.4344124534030005e+00 3.1216592406670371e+00 0 0 0
61 3 1 -4.3312499999999998e+00 -6.8199399999999999e+00 1.6875024916199077e+00 0 0 0
93 4 2 -2.9171982506403076e+00 -8.3613936540415974e+00 3.2199464946513063e+00 0 0 0
397 14 2 -3.2900670664258951e+00 -6.2994073626224081e+00 3.6067461979317095e+00 0 0 0
398 14 2 -2.8085585250662191e+00 -7.0469597591754454e+00 3.2252922984740748e+00 0 0 0
92 4 2 -2.6530810214304776e+00 -7.8815699488435005e+00 2.5095678865024040e+00 0 0 0
234 8 2 -3.2117514565618294e-01 -6.1830283151780856e+00 2.6877327630850196e+00 0 0 0
122 5 2 -1.9937619914663429e+00 -6.4121904277094020e+00 1.6829351804744530e+00 0 0 0
121 5 1 -1.1812499999999999e+00 -6.8199399999999999e+00 1.6875024916199077e+00 0 0 0
235 8 2 1.7743738966514825e-02 -6.9198600603224101e+00 1.9932506630288915e+00 0 0 0
233 8 2 -1.0595805609099054e+00 -6.6551347333921189e+00 3.0912566085450472e+00 0 0 0
95 4 2 -1.3915125454668862e+00 -8.9983713847135416e+00 3.6452590837189458e+00 0 0 0
232 8 2 -4.1254485447011169e-01 -7.3418230172069112e+00 3.3696748019736891e+00 0 0 0
94 4 2 -2.3608794533786561e+00 -9.0659803782117070e+00 3.6848616977828632e+00 0 0 0
1622 55 2 -9.9911103726096540e-01 -9.0237557689780949e+00 2.0048372435958322e+00 0 1 0
1623 55 2 -4.5364132019163222e-01 -8.7885219505780210e+00 2.6927390669646813e+00 0 1 0
1624 55 2 -5.3147053328160287e-01 -8.4800774893614150e+00 3.6142760630589561e+00 0 1 0
332 12 2 -5.9082028277476955e+00 -4.5435414824097133e+00 2.2734434687684919e+00 0 0 0
331 12 1 -5.9062500000000000e+00 -5.3044000000000002e+00 1.6875024916199077e+00 0 0 0
335 12 2 -6.3502107495656634e+00 -6.0356191567762814e+00 3.5630207919576820e+00 0 0 0
334 12 2 -5.9150782895309870e+00 -5.2579971035329116e+00 3.1692842480886134e+00 0 0 0
301 11 1 -7.4812500000000002e+00 -3.7888500000000001e+00 1.6875024916199077e+00 0 0 0
633 22 2 -5.3465457148422351e+00 -3.3204055802529875e+00 2.8765209495057409e+00 0 0 0
336 12 2 -7.2680227992364559e+00 -5.8505620467090340e+00 3.3197207398616340e+00 0 0 0
337 12 2 -7.0101677651967389e+00 -5.2574618707519667e+00 2.5574767886894616e+00 0 0 0
338 12 2 -7.1209959830933514e+00 -4.4648009396749133e+00 3.1302073928023906e+00 0 0 0
62 3 2 -4.4271248125091009e+00 -5.9125022039318722e+00 2.1051278590544293e+00 0 0 0
393 14 2 -2.8576274202410894e+00 -3.9566490872752156e+00 2.2177965063310987e+00 0 0 0
391 14 1 -2.7562500000000001e+00 -5.3044000000000002e+00 1.6875024916199077e+00 0 0 0
395 14 2 -3.2127566615778056e+00 -4.9196852259637227e+00 3.6147277709962387e+00 0 0 0
333 12 2 -5.1167742843077226e+00 -5.0520012935145546e+00 2.6261015249781261e+00 0 0 0
363 13 2 -3.7897638962420181e+00 -3.7547076607601002e+00 3.3405374398010670e+00 0 0 0
362 13 2 -4.3587341047942720e+00 -3.5912631296458719e+00 2.6077391850458560e+00 0 0 0
361 13 1 -4.3312499999999998e+00 -3.7888500000000001e+00 1.6875024916199077e+00 0 0 0
364 13 2 -4.4105594651839208e+00 -4.3935519868061679e+00 3.7141204791923110e+00 0 0 0
392 14 2 -2.1390123873520692e+00 -4.5208352084136569e+00 1.6940126256732650e+00 0 0 0
394 14 2 -2.5109689264562371e+00 -4.6024152444464050e+00 2.8685714153354578e+00 0 0 0
453 16 2 -3.4643985809012195e-01 -3.9542420557199192e+00 2.6752569069175069e+00 0 0 0
454 16 2 -8.2038985672382758e-01 -3.9048627972264556e+00 3.5143206855588454e+00 0 0 0
423 15 2 -1.6760221335686201e+00 -3.2057759316542689e+00 2.4291033811380220e+00 0 0 0
421 15 1 -1.1812499999999999e+00 -3.7888500000000001e+00 1.6875024916199077e+00 0 0 0
452 16 2 -1.8333261286001479e-01 -4.7352826958839813e+00 2.1522600199643023e+00 0 0 0
455 16 2 -1.2832198798174781e+00 -4.7429358869035783e+00 3.1817511519702393e+00 0 0 0
487 17 2 -2.1604215278891745e-01 -5.0369974942209392e+00 3.6514957133210650e+00 0 0 0
632 22 2 -5.6561969609642970e+00 -3.1901696976958891e+00 1.9484724728439322e+00 0 0 0
631 22 1 -5.9062500000000000e+00 -2.2733099999999999e+00 1.6875024916199077e+00 0 0 0
601 21 1 -7.4812500000000002e+00 -7.5777000000000005e-01 1.6875024916199077e+00 0 0 0
934 32 2 -6.3649662543740959e+00 -7.7118190489430527e-01 2.8680640295675608e+00 0 0 0
933 32 2 -6.1652007901756178e+00 -3.0652044823087909e-01 1.8748517924958092e+00 0 0 0
634 22 2 -5.4362530175798103e+00 -2.6615303864259632e+00 3.6787974201954023e+00 0 0 0
604 21 2 -7.6023891777845352e+00 -1.3909504880416164e+00 3.1980513502007439e+00 0 0 0
693 24 2 -2.8155955849144298e+00 -2.7136631636084094e+00 2.8565460827402767e+00 0 0 0
694 24 2 -2.7630688643850534e+00 -2.5433961971544075e+00 3.8016774326645497e+00 0 0 0
692 24 2 -3.5430907891750691e+00 -2.6516684860063120e+00 2.0918163777326071e+00 0 0 0
691 24 1 -2.7562500000000001e+00 -2.2733099999999999e+00 1.6875024916199077e+00 0 0 0
661 23 1 -4.3312499999999998e+00 -7.5777000000000005e-01 1.6875024916199077e+00 0 0 0
663 23 2 -4.5775721777158527e+00 -1.6284705617334108e+00 3.1674787377222438e+00 0 0 0
662 23 2 -4.0703326236330044e+00 -1.2764243596071663e+00 2.4175884570748023e+00 0 0 0
422 15 2 -1.2443687905574217e+00 -2.8466977884317974e+00 1.6119960889054017e+00 0 0 0
424 15 2 -1.7502558402447184e+00 -2.9592270915645313e+00 3.3511323692248274e+00 0 0 0
721 25 1 -1.1812499999999999e+00 -7.5777000000000005e-01 1.6875024916199077e+00 0 0 0
752 26 2 5.7818019099467648e-02 -2.7411742100001288e+00 2.4477937801663323e+00 0 0 0
35 2 2 -6.5980153871472025e+00 -8.9452870998954541e+00 4.5752371557534861e+00 0 0 0
1509 51 2 -6.5396233627663998e+00 -7.3036779777415184e+00 5.9388895320393393e+00 0 1 0
5 1 2 -7.3328097803853769e+00 -7.6540213618354471e+00 4.4095787740053263e+00 0 0 0
130 5 2 -5.6264126647347776e+00 -8.4305920771893295e+00 4.3239972233684112e+00 0 0 0
6 1 2 -7.8004287945789335e+00 -7.1403154852520077e+00 5.0641290746727341e+00 0 0 0
66 3 2 -5.6728382192415454e+00 -7.2515571862207331e+00 4.3334311434665969e+00 0 0 0
67 3 2 -5.3332885344840220e+00 -6.6741108850889654e+00 5.0334294786048117e+00 0 0 0
68 3 2 -5.2532307113641385e+00 -6.4071339001578425e+00 5.9398269232900542e+00 0 0 0
132 5 2 -5.7628471516020161e+00 -8.8893628775463274e+00 5.3938833575943361e+00 0 0 0
7 1 2 -7.7943434789494352e+00 -6.3439818347045600e+00 5.5119964921239610e+00 0 0 0
1507 51 2 -7.5275194823482057e+00 -8.9718490732933187e+00 5.5678943584508778e+00 0 1 0
1508 51 2 -6.8598423733636391e+00 -8.2563150304371948e+00 5.6811102847471693e+00 0 1 0
1598 54 2 -3.8907981560304918e+00 -7.9660862510220758e+00 5.6286233082863486e+00 0 1 0
1597 54 2 -3.7173997513310315e+00 -8.7752425922428081e+00 5.0610932870350149e+00 0 1 0
65 3 2 -5.1004997868911524e+00 -6.5426638294390385e+00 4.0827338772450563e+00 0 0 0
399 14 2 -3.0216425574068388e+00 -7.3367398630084821e+00 4.1942596146986739e+00 0 0 0
133 5 2 -4.8370862990518608e+00 -8.5061836972593241e+00 5.2755952248492068e+00 0 0 0
1626 55 2 6.9651478904198635e-02 -9.0207678229207549e+00 5.0736774673639635e+00 0 1 0
1625 55 2 -7.5131047630905479e-01 -8.8149591585101028e+00 4.5085003173466118e+00 0 1 0
401 14 2 -2.1197005162304259e+00 -8.0257481869369389e+00 5.4263227970053292e+00 0 0 0
402 14 2 -1.4686636099195280e+00 -7.3556657699697459e+00 5.4948907195364889e+00 0 0 0
400 14 2 -2.1672542967402944e+00 -7.6768562709156463e+00 4.5084999811158006e+00 0 0 0
231 8 2 -5.1778183978173686e-01 -7.2431689022020080e+00 4.2949104305079384e+00 0 0 0
1628 55 2 -3.2634182096307562e-01 -7.9895693446036748e+00 5.5459625295604074e+00 0 1 0
1629 55 2 -2.3004131663220673e-01 -7.1283946066392350e+00 5.9242513785262547e+00 0 1 0
340 12 2 -7.3886558175433565e+00 -4.1881546492544093e+00 4.5431817605147620e+00 0 0 0
339 12 2 -6.6949499088073763e+00 -3.9890028084276370e+00 3.8834664242876027e+00 0 0 0
343 12 2 -6.7388709184544551e+00 -5.6260811069051515e+00 5.8528034275970269e+00 0 0 0
342 12 2 -7.4169391932191164e+00 -5.0425155254874561e+00 5.6450331573216141e+00 0 0 0
396 14 2 -3.5464051037389983e+00 -5.6029295560334260e+00 4.1994797822321130e+00 0 0 0
699 24 2 -3.4026460591433927e+00 -4.6809211677000127e+00 5.8089091969220945e+00 0 0 0
698 24 2 -3.4717129863572889e+00 -4.1026795868865307e+00 4.9123284423713356e+00 0 0 0
365 13 2 -5.1698399749676147e+00 -4.9555606520924274e+00 4.0317275444889935e+00 0 0 0
366 13 2 -4.9766570927706324e+00 -5.2478012839211337e+00 4.8982864299146964e+00 0 0 0
636 22 2 -4.2307658059493054e+00 -3.3892547192358560e+00 4.7799544431784042e+00 0 0 0
697 24 2 -2.8947882348981326e+00 -3.8820245738166266e+00 4.1590819928178844e+00 0 0 0
367 13 2 -4.8385792306949069e+00 -4.2935524853743843e+00 5.3434176556783592e+00 0 0 0
457 16 2 -1.9535062316593943e+00 -5.0406050329265923e+00 4.9145934746675266e+00 0 0 0
458 16 2 -2.3226899449737495e+00 -5.6042117259225250e+00 5.5701250990799309e+00 0 0 0
456 16 2 -1.3256377110135473e+00 -5.1374427326038701e+00 4.1368128017905255e+00 0 0 0
757 26 2 -2.8002876138366295e-01 -4.2939586733999811e+00 5.1810925478646865e+00 0 0 0
758 26 2 -3.6022150653979434e-01 -5.0530196520605379e+00 5.7772862113083496e+00 0 0 0
459 16 2 -1.3617027595636280e+00 -5.6493537583175399e+00 5.6240863963374350e+00 0 0 0
606 21 2 -7.1310584644857418e+00 -2.1281097887367948e+00 4.6685306758132263e+00 0 0 0
605 21 2 -7.5389101530610851e+00 -2.0549236713372170e+00 3.8549505669311346e+00 0 0 0
521 18 2 -7.5124367775309260e+00 -3.1031938460618878e+00 5.6535309642489544e+00 1 0 0
607 21 2 -6.4814186771666664e+00 -2.3652038536641902e+00 5.2973704786666218e+00 0 0 0
608 21 2 -6.9497046613196503e+00 -1.7016972851410817e+00 5.7758564816763984e+00 0 0 0
1177 40 2 -7.4353472814768100e+00 -1.0023066804838159e+00 5.1170283215993688e+00 1 0 0
1176 40 2 -7.3732708786454708e+00 -9.6456366619626810e-01 4.0901694824504755e+00 1 0 0
695 24 2 -3.6758644034639611e+00 -2.2489402932767164e+00 3.9582703458015982e+00 0 0 0
696 24 2 -3.3551552259724344e+00 -3.0432349354054367e+00 4.3938885437861597e+00 0 0 0
637 22 2 -4.0442501392474659e+00 -3.1193103094856420e+00 5.6925904435964743e+00 0 0 0
635 22 2 -4.6849752101421238e+00 -3.1008107386087440e+00 4.0198724912198385e+00 0 0 0
666 23 2 -4.1586186352401198e+00 -1.7227904614868532e+00 5.5367525420676458e+00 0 0 0
665 23 2 -4.7548207006478176e+00 -1.4736969724853703e+00 4.7851388510101813e+00 0 0 0
664 23 2 -4.2471953916555814e+00 -1.2470987673038660e+00 3.9882044327611266e+00 0 0 0
939 32 2 -4.0752849267351792e+00 -3.4030006145616831e-01 5.9622848694629704e+00 0 0 0
425 15 2 -1.8629643521992696e+00 -2.9672808957546386e+00 4.3661733590916105e+00 0 0 0
426 15 2 -2.2631488947757541e+00 -3.1655584522077849e+00 5.1994069776177705e+00 0 0 0
427 15 2 -1.6146135411937912e+00 -2.7433392798409018e+00 5.7361173261522964e+00 0 0 0
1510 51 2 -6.2390012491453088e+00 -7.1879021118168938e+00 6.8480441723540943e+00 0 1 0
39 2 2 -6.5289976630079449e+00 -8.9071709678452802e+00 7.1285412352671731e+00 0 0 0
136 5 2 -5.2944200217349593e+00 -8.6697030085097069e+00 7.7983145780970800e+00 0 0 0
1511 51 2 -6.7515385901668514e+00 -7.1069168968896719e+00 7.6518535441507209e+00 0 1 0
40 2 2 -6.8566814290107034e+00 -8.5791438471652022e+00 7.9448421377786573e+00 0 0 0
134 5 2 -4.4397256999530548e+00 -8.8671632528510393e+00 6.1399214172171677e+00 0 0 0
1599 54 2 -3.8709605902796898e+00 -8.1950005676911619e+00 6.6338829738078173e+00 0 1 0
1600 54 2 -2.8825392402858818e+00 -8.0829705718440579e+00 6.7619511746159562e+00 0 1 0
1601 54 2 -2.6670699439768626e+00 -9.0480806194001815e+00 6.9638371398689864e+00 0 1 0
703 24 2 -3.1473589562540418e+00 -7.1450039757446717e+00 7.8213228626831093e+00 0 0 0
702 24 2 -3.1830466624240810e+00 -6.2120373529536099e+00 7.5991008476975646e+00 0 0 0
135 5 2 -4.9959790540775906e+00 -8.8709534046909297e+00 6.9617276495259137e+00 0 0 0
406 14 2 -1.4249766334392105e-01 -6.3340044679515470e+00 7.4847173753274800e+00 0 0 0
403 14 2 -1.9454242871270300e+00 -7.3556963605656884e+00 6.3379521611484764e+00 0 0 0
1630 55 2 -6.9720596802995183e-01 -7.3227469070870441e+00 6.7620043890646890e+00 0 1 0
404 14 2 -1.6011232621136979e+00 -6.7851129726544022e+00 7.0568273297966400e+00 0 0 0
405 14 2 -1.1062984709443688e+00 -6.1836203025118479e+00 7.5464573446326089e+00 0 0 0
1631 55 2 -5.0327313613447111e-01 -7.2265533131808120e+00 7.7987217875656318e+00 0 1 0
69 3 2 -5.2176224808836960e+00 -5.5790308383623817e+00 6.4190217543119914e+00 0 0 0
523 18 2 -7.2144596636896887e+00 -3.2785193156716934e+00 6.6734412255055844e+00 1 0 0
524 18 2 -7.0154737867049883e+00 -4.1758547976329847e+00 6.9728007308193591e+00 1 0 0
345 12 2 -7.8140400623769279e+00 -5.5947997803180058e+00 7.3588381178664646e+00 0 0 0
344 12 2 -7.4331946407138245e+00 -5.9036887766984645e+00 6.5280668800026938e+00 0 0 0
346 12 2 -6.9999209153956592e+00 -5.9459837422868924e+00 7.7898440388649872e+00 0 0 0
525 18 2 -6.2601168585311804e+00 -4.1638239563919663e+00 7.5903356631679291e+00 1 0 0
526 18 2 -5.5232957822585398e+00 -4.3957435901176325e+00 7.0227255185535888e+00 1 0 0
527 18 2 -5.2737135105188147e+00 -4.0141131379768895e+00 7.8741361748208938e+00 1 0 0
701 24 2 -2.7430681602977760e+00 -5.9978108048527226e+00 6.6720329776298675e+00 0 0 0
71 3 2 -4.4980974240819771e+00 -5.8949937258276233e+00 7.8434856407496625e+00 0 0 0
70 3 2 -4.3731905881863717e+00 -5.7484112709930013e+00 6.8986399323327783e+00 0 0 0
370 13 2 -3.4366208095458717e+00 -4.5005308559785515e+00 7.7966053069781980e+00 0 0 0
369 13 2 -3.9171151178460963e+00 -4.7144312785842297e+00 6.9138407792397851e+00 0 0 0
700 24 2 -2.7409737971395280e+00 -5.0424650644894990e+00 6.4203790483156427e+00 0 0 0
638 22 2 -4.5521958363782131e+00 -3.3279006278431229e+00 6.4272210127286034e+00 0 0 0
368 13 2 -4.7799372655107266e+00 -4.5747017756224366e+00 6.3314845827054596e+00 0 0 0
639 22 2 -3.9874096550573888e+00 -3.2992530809838625e+00 7.2582892834120782e+00 0 0 0
640 22 2 -3.0351776742610324e+00 -3.6091548397883852e+00 7.4263300654814008e+00 0 0 0
759 26 2 -3.0484562363441869e-01 -4.9441344823145013e+00 6.7396921095458229e+00 0 0 0
461 16 2 -1.4125664442470522e+00 -4.8479833043920584e+00 7.2991623229883098e+00 0 0 0
460 16 2 -1.3779505803455570e+00 -5.6581683457910179e+00 6.6212622751347929e+00 0 0 0
462 16 2 -1.3274111389679299e+00 -4.1853305188085299e+00 8.1010477531001843e+00 0 0 0
760 26 2 -9.7863594691365699e-02 -4.0077130551834674e+00 6.5201495844885047e+00 0 0 0
609 21 2 -7.4957543305077428e+00 -1.4682469826314377e+00 6.5550616977077825e+00 0 0 0
942 32 2 -5.7767576667229878e+00 -2.7817520570464876e-01 6.3939320733647085e+00 0 0 0
610 21 2 -6.6516965779869075e+00 -1.1330836905553063e+00 6.9025965526137654e+00 0 0 0
612 21 2 -5.6334984451508143e+00 -1.0146068637380314e+00 8.1344583479546166e+00 0 0 0
611 21 2 -6.2354628773324903e+00 -1.4731905902936482e+00 7.5637095481391210e+00 0 0 0
1184 40 2 -7.4559178063089178e+00 -6.6061049795303695e-01 8.3201951363742843e+00 1 0 0
943 32 2 -5.1675057559064790e+00 -3.4866435144263302e-01 7.1804463472389042e+00 0 0 0
667 23 2 -4.8899125641931418e+00 -1.6024847451474489e+00 6.1177897897112450e+00 0 0 0
642 22 2 -2.8918364604673168e+00 -2.2188008543613016e+00 7.9817791696824347e+00 0 0 0
641 22 2 -3.0979139284143229e+00 -2.7030342921789479e+00 7.1566538717179347e+00 0 0 0
668 23 2 -4.5910298760070809e+00 -1.8064069645113336e+00 7.0942840940047933e+00 0 0 0
669 23 2 -4.4350048871064516e+00 -2.0005570352470814e+00 8.0004835977363911e+00 0 0 0
428 15 2 -1.9705994708016528e+00 -2.7386442841209204e+00 6.5626666849661568e+00 0 0 0
429 15 2 -2.0685917126512194e+00 -2.5391996050838612e+00 7.4569274071027376e+00 0 0 0
431 15 2 -1.1101227074424238e+00 -3.0557092937050121e+00 8.2480584078257895e+00 0 0 0
788 27 2 2.7001239513046969e-02 -1.4294608254745358e+00 8.1203639681317838e+00 0 0 0
43 2 2 -7.4052599223983426e+00 -8.3280623873373720e+00 1.0244258826575365e+01 0 0 0
137 5 2 -5.2387093574807091e+00 -8.3367852598976206e+00 8.6930560056922968e+00 0 0 0
41 2 2 -7.2455737351024343e+00 -9.0229744915496397e+00 8.8301508420936159e+00 0 0 0
73 3 2 -5.2627661789697582e+00 -6.5053186453365726e+00 9.4533749396076985e+00 0 0 0
1512 51 2 -7.1242306758692413e+00 -7.4990299146963597e+00 8.4860643137906440e+00 0 1 0
1513 51 2 -6.5047598261566417e+00 -7.1632225344876250e+00 9.1546255443373035e+00 0 1 0
1514 51 2 -6.2654719765963502e+00 -7.9179545882963929e+00 9.6300186832657353e+00 0 1 0
15 1 2 -6.7590138951216518e+00 -6.1631398685426371e+00 1.0165122320117424e+01 0 0 0
14 1 2 -7.4006953949544627e+00 -6.2148624877222058e+00 9.4577909819110975e+00 0 0 0
1515 51 2 -6.2497504054701407e+00 -7.9476699093532774e+00 1.0598654983822655e+01 0 1 0
140 5 2 -2.5660295858125268e+00 -8.8721636129744628e+00 8.4542777401504843e+00 0 0 0
139 5 2 -3.4396733699679083e+00 -8.6509885353316598e+00 8.6638751291482556e+00 0 0 0
138 5 2 -4.3202776550972075e+00 -8.5260600171961585e+00 8.9645221980597398e+00 0 0 0
72 3 2 -4.5234965289987912e+00 -6.3873530037586956e+00 8.8039378365607597e+00 0 0 0
1609 54 2 -3.9818016500961497e+00 -8.9087470289388175e+00 1.0268709635312383e+01 0 1 0
74 3 2 -5.0705409608876408e+00 -7.0317838629251153e+00 1.0196492062610952e+01 0 0 0
704 24 2 -3.1055780398582260e+00 -6.8704192603057086e+00 8.7458917823900517e+00 0 0 0
148 5 2 -2.7679924477595472e+00 -7.7851030191393944e+00 1.0199471381861088e+01 0 0 0
113 4 2 -9.1423709224199790e-01 -9.0581223952952694e+00 9.0308121856071750e+00 0 0 0
466 16 2 -7.1467259202063016e-01 -6.3457482893643977e+00 9.7550844956379965e+00 0 0 0
149 5 2 -1.9081566987636545e+00 -7.4402280526177300e+00 9.7612754924690339e+00 0 0 0
150 5 3 -2.3888549072819472e+00 -7.7683880543984563e+00 9.0002383273846824e+00 0 0 0
1634 55 2 -9.3873356548534392e-01 -7.5247835739898203e+00 1.0404947318028661e+01 0 1 0
1632 55 2 -6.0529867628200773e-01 -7.2913946238623151e+00 8.7212994515350939e+00 0 1 0
705 24 2 -2.3303946614952156e+00 -6.4577242730993163e+00 9.2940104588097441e+00 0 0 0
1633 55 2 -3.0648582991263151e-01 -7.2268824969597896e+00 9.7148420324050271e+00 0 1 0
706 24 2 -2.1836637416644504e+00 -6.4697551863324243e+00 1.0182771067218832e+01 0 0 0
114 4 2 -5.8363262181698516e-01 -8.3336337623413588e+00 9.6295412648275143e+00 0 0 0
618 21 2 -7.0301592489102909e+00 -3.3183624055785068e+00 1.0199167021896612e+01 0 0 0
347 12 2 -6.8090062040291857e+00 -5.2389537841756999e+00 8.4825858661905542e+00 0 0 0
16 1 2 -7.0161159370722066e+00 -5.2777562927078634e+00 1.0347995026547650e+01 0 0 0
350 12 2 -5.2096600539384550e+00 -4.2962469581129108e+00 9.4197425098062464e+00 0 0 0
349 12 2 -6.0258576782957238e+00 -4.2417669916528444e+00 8.8731380674148479e+00 0 0 0
351 12 2 -5.8845800227005309e+00 -4.2506966118331153e+00 1.0201594045459718e+01 0 0 0
348 12 2 -7.0108566534796282e+00 -4.3520494209021443e+00 8.8351019238570103e+00 0 0 0
528 18 2 -5.4491982511233132e+00 -3.2029894050073353e+00 8.5015114848278230e+00 1 0 0
352 12 2 -5.2626997619610059e+00 -3.6298676702305195e+00 1.0587941125266394e+01 0 0 0
553 19 2 -7.6747850872221930e+00 -3.4101049107038177e+00 8.6470493420944070e+00 1 0 0
371 13 2 -3.4565427694826094e+00 -4.7950195028511242e+00 8.7726103151322210e+00 0 0 0
372 13 2 -4.2592861464806555e+00 -5.1826383377735601e+00 8.9987427362279639e+00 0 0 0
373 13 2 -4.1228547593757199e+00 -5.4617285793441894e+00 9.9001241226751038e+00 0 0 0
374 13 2 -4.6073781495599455e+00 -5.2831121545299045e+00 1.0612573762356043e+01 0 0 0
768 26 2 -5.0431490227362330e-01 -3.9149058086629394e+00 9.7848883778768183e+00 0 0 0
766 26 2 -1.2419751680470148e-01 -3.8848382677031870e+00 8.5341927341529562e+00 0 0 0
463 16 2 -1.4748732561643803e+00 -5.1177913799816794e+00 8.5445755606137386e+00 0 0 0
464 16 2 -7.3361805949380610e-01 -5.1493204289156012e+00 9.2044040658683031e+00 0 0 0
465 16 2 -4.5733394406495692e-01 -5.4210998762049796e+00 1.0111242630503778e+01 0 0 0
434 15 2 -1.5969764025890720e+00 -3.7541827621339445e+00 9.8562492403665445e+00 0 0 0
432 15 2 -1.7939055739235239e+00 -3.4276811420639546e+00 8.7001902076255426e+00 0 0 0
617 21 2 -6.1945711810992785e+00 -3.0118720708371680e+00 9.9897271943887720e+00 0 0 0
615 21 2 -6.9601432689000662e+00 -2.0479413705335041e+00 8.6139386125931683e+00 0 0 0
616 21 2 -6.7687741480122465e+00 -2.8147970890932705e+00 9.1574519317933571e+00 0 0 0
613 21 2 -5.8626601944568968e+00 -1.1046802675754632e+00 9.0719715516372244e+00 0 0 0
619 21 2 -6.8781739815209608e+00 -2.4771651075322083e+00 1.0506437936264696e+01 0 0 0
614 21 2 -6.4745779571967379e+00 -1.6872635220608569e+00 9.3481550618031282e+00 0 0 0
620 21 2 -7.8331373619787703e+00 -2.7231600764309447e+00 1.0388764561789760e+01 0 0 0
529 18 2 -5.3369760856465449e+00 -2.9624952535208502e+00 9.4055370618551848e+00 1 0 0
1185 40 2 -7.0164623756855189e+00 -2.6730922651928596e-01 9.0863719203787330e+00 1 0 0
643 22 2 -3.1761201486101829e+00 -1.4870904621042031e+00 8.5220160077570650e+00 0 0 0
531 18 2 -4.8977065164747424e+00 -2.5767034730716420e+00 1.0320982276212101e+01 1 0 0
672 23 2 -5.0801940718183358e+00 -5.5403693473020477e-01 1.0302466781529496e+01 0 0 0
670 23 2 -4.7420324439272310e+00 -1.4666311641628098e+00 8.6865807310515155e+00 0 0 0
671 23 2 -4.6715026887596975e+00 -1.1345179576133018e+00 9.5909833921697327e+00 0 0 0
530 18 2 -4.6591369298410230e+00 -2.3149469172077413e+00 9.3653715517271632e+00 1 0 0
791 27 2 -8.5799976136405720e-01 -1.1948118421077631e+00 1.0393497092065829e+01 0 0 0
741 25 2 9.8019668497827089e-02 -2.9346624171912683e-01 9.8161458778831321e+00 0 0 0