LAMMPS data file via write_data, version 31 Mar 2017, timestep = 5000000

2101 atoms
5 atom types
1740 bonds
1 bond types

-7.8750000000000000e+00 7.8750000000000000e+00 xlo xhi
-9.0932499999999994e+00 9.0932499999999994e+00 ylo yhi
-3.0000000000000000e+00 4.0000000000000000e+01 zlo zhi

Masses

1 1
2 1
3 1
4 1
5 1

Pair Coeffs # lj/expand

1 1 1 0
2 1 1 0
3 1 1 0
4 0 0 0
5 1 1 3

Bond Coeffs # fene

1 30 1.5 1 1

Atoms # bond

1801 61 4 -7.8750000000000000e+00 -9.0932499999999994e+00 0.0000000000000000e+00 0 0 0
1802 62 4 -7.8750000000000000e+00 -7.2746000000000004e+00 0.0000000000000000e+00 0 0 0
1811 71 4 -7.3499999999999996e+00 -8.1839300000000001e+00 0.0000000000000000e+00 0 0 0
1821 81 4 -6.8250000000000002e+00 -9.0932499999999994e+00 0.0000000000000000e+00 0 0 0
1822 82 4 -6.8250000000000002e+00 -7.2746000000000004e+00 0.0000000000000000e+00 0 0 0
1831 91 4 -6.2999999999999998e+00 -8.1839300000000001e+00 0.0000000000000000e+00 0 0 0
1841 101 4 -5.7750000000000004e+00 -9.0932499999999994e+00 0.0000000000000000e+00 0 0 0
1842 102 4 -5.7750000000000004e+00 -7.2746000000000004e+00 0.0000000000000000e+00 0 0 0
1851 111 4 -5.2500000000000000e+00 -8.1839300000000001e+00 0.0000000000000000e+00 0 0 0
1861 121 4 -4.7249999999999996e+00 -9.0932499999999994e+00 0.0000000000000000e+00 0 0 0
1862 122 4 -4.7249999999999996e+00 -7.2746000000000004e+00 0.0000000000000000e+00 0 0 0
1871 131 4 -4.2000000000000002e+00 -8.1839300000000001e+00 0.0000000000000000e+00 0 0 0
1881 141 4 -3.6749999999999998e+00 -9.0932499999999994e+00 0.0000000000000000e+00 0 0 0
1882 142 4 -3.6749999999999998e+00 -7.2746000000000004e+00 0.0000000000000000e+00 0 0 0
1891 151 4 -3.1499999999999999e+00 -8.1839300000000001e+00 0.0000000000000000e+00 0 0 0
1901 161 4 -2.6250000000000000e+00 -9.0932499999999994e+00 0.0000000000000000e+00 0 0 0
1902 162 4 -2.6250000000000000e+00 -7.2746000000000004e+00 0.0000000000000000e+00 0 0 0
1911 171 4 -2.1000000000000001e+00 -8.1839300000000001e+00 0.0000000000000000e+00 0 0 0
1921 181 4 -1.5750000000000000e+00 -9.0932499999999994e+00 0.0000000000000000e+00 0 0 0
1922 182 4 -1.5750000000000000e+00 -7.2746000000000004e+00 0.0000000000000000e+00 0 0 0
1931 191 4 -1.0500000000000000e+00 -8.1839300000000001e+00 0.0000000000000000e+00 0 0 0
1942 202 4 -5.2500000000000002e-01 -7.2746000000000004e+00 0.0000000000000000e+00 0 0 0
1941 201 4 -5.2500000000000002e-01 -9.0932499999999994e+00 0.0000000000000000e+00 0 0 0
1951 211 4 0.0000000000000000e+00 -8.1839300000000001e+00 0.0000000000000000e+00 0 0 0
1812 72 4 -7.3499999999999996e+00 -6.3652800000000003e+00 0.0000000000000000e+00 0 0 0
1832 92 4 -6.2999999999999998e+00 -6.3652800000000003e+00 0.0000000000000000e+00 0 0 0
1803 63 4 -7.8750000000000000e+00 -5.4559499999999996e+00 0.0000000000000000e+00 0 0 0
1823 83 4 -6.8250000000000002e+00 -5.4559499999999996e+00 0.0000000000000000e+00 0 0 0
1843 103 4 -5.7750000000000004e+00 -5.4559499999999996e+00 0.0000000000000000e+00 0 0 0
1813 73 4 -7.3499999999999996e+00 -4.5466300000000004e+00 0.0000000000000000e+00 0 0 0
1833 93 4 -6.2999999999999998e+00 -4.5466300000000004e+00 0.0000000000000000e+00 0 0 0
1852 112 4 -5.2500000000000000e+00 -6.3652800000000003e+00 0.0000000000000000e+00 0 0 0
1853 113 4 -5.2500000000000000e+00 -4.5466300000000004e+00 0.0000000000000000e+00 0 0 0
1872 132 4 -4.2000000000000002e+00 -6.3652800000000003e+00 0.0000000000000000e+00 0 0 0
1892 152 4 -3.1499999999999999e+00 -6.3652800000000003e+00 0.0000000000000000e+00 0 0 0
1863 123 4 -4.7249999999999996e+00 -5.4559499999999996e+00 0.0000000000000000e+00 0 0 0
1883 143 4 -3.6749999999999998e+00 -5.4559499999999996e+00 0.0000000000000000e+00 0 0 0
1873 133 4 -4.2000000000000002e+00 -4.5466300000000004e+00 0.0000000000000000e+00 0 0 0
1893 153 4 -3.1499999999999999e+00 -4.5466300000000004e+00 0.0000000000000000e+00 0 0 0
1903 163 4 -2.6250000000000000e+00 -5.4559499999999996e+00 0.0000000000000000e+00 0 0 0
1912 172 4 -2.1000000000000001e+00 -6.3652800000000003e+00 0.0000000000000000e+00 0 0 0
1932 192 4 -1.0500000000000000e+00 -6.3652800000000003e+00 0.0000000000000000e+00 0 0 0
1923 183 4 -1.5750000000000000e+00 -5.4559499999999996e+00 0.0000000000000000e+00 0 0 0
1943 203 4 -5.2500000000000002e-01 -5.4559499999999996e+00 0.0000000000000000e+00 0 0 0
1913 173 4 -2.1000000000000001e+00 -4.5466300000000004e+00 0.0000000000000000e+00 0 0 0
1933 193 4 -1.0500000000000000e+00 -4.5466300000000004e+00 0.0000000000000000e+00 0 0 0
1952 212 4 0.0000000000000000e+00 -6.3652800000000003e+00 0.0000000000000000e+00 0 0 0
1953 213 4 0.0000000000000000e+00 -4.5466300000000004e+00 0.0000000000000000e+00 0 0 0
1804 64 4 -7.8750000000000000e+00 -3.6373000000000002e+00 0.0000000000000000e+00 0 0 0
1824 84 4 -6.8250000000000002e+00 -3.6373000000000002e+00 0.0000000000000000e+00 0 0 0
1844 104 4 -5.7750000000000004e+00 -3.6373000000000002e+00 0.0000000000000000e+00 0 0 0
1814 74 4 -7.3499999999999996e+00 -2.7279800000000001e+00 0.0000000000000000e+00 0 0 0
1834 94 4 -6.2999999999999998e+00 -2.7279800000000001e+00 0.0000000000000000e+00 0 0 0
1854 114 4 -5.2500000000000000e+00 -2.7279800000000001e+00 0.0000000000000000e+00 0 0 0
1864 124 4 -4.7249999999999996e+00 -3.6373000000000002e+00 0.0000000000000000e+00 0 0 0
1884 144 4 -3.6749999999999998e+00 -3.6373000000000002e+00 0.0000000000000000e+00 0 0 0
1874 134 4 -4.2000000000000002e+00 -2.7279800000000001e+00 0.0000000000000000e+00 0 0 0
1894 154 4 -3.1499999999999999e+00 -2.7279800000000001e+00 0.0000000000000000e+00 0 0 0
1904 164 4 -2.6250000000000000e+00 -3.6373000000000002e+00 0.0000000000000000e+00 0 0 0
1924 184 4 -1.5750000000000000e+00 -3.6373000000000002e+00 0.0000000000000000e+00 0 0 0
1944 204 4 -5.2500000000000002e-01 -3.6373000000000002e+00 0.0000000000000000e+00 0 0 0
1914 174 4 -2.1000000000000001e+00 -2.7279800000000001e+00 0.0000000000000000e+00 0 0 0
1934 194 4 -1.0500000000000000e+00 -2.7279800000000001e+00 0.0000000000000000e+00 0 0 0
1954 214 4 0.0000000000000000e+00 -2.7279800000000001e+00 0.0000000000000000e+00 0 0 0
1805 65 4 -7.8750000000000000e+00 -1.8186500000000001e+00 0.0000000000000000e+00 0 0 0
1815 75 4 -7.3499999999999996e+00 -9.0932999999999997e-01 0.0000000000000000e+00 0 0 0
1825 85 4 -6.8250000000000002e+00 -1.8186500000000001e+00 0.0000000000000000e+00 0 0 0
1835 95 4 -6.2999999999999998e+00 -9.0932999999999997e-01 0.0000000000000000e+00 0 0 0
1845 105 4 -5.7750000000000004e+00 -1.8186500000000001e+00 0.0000000000000000e+00 0 0 0
1855 115 4 -5.2500000000000000e+00 -9.0932999999999997e-01 0.0000000000000000e+00 0 0 0
1826 86 4 -6.8250000000000002e+00 0.0000000000000000e+00 0.0000000000000000e+00 0 0 0
1846 106 4 -5.7750000000000004e+00 0.0000000000000000e+00 0.0000000000000000e+00 0 0 0
1806 66 4 -7.8750000000000000e+00 0.0000000000000000e+00 0.0000000000000000e+00 0 0 0
1865 125 4 -4.7249999999999996e+00 -1.8186500000000001e+00 0.0000000000000000e+00 0 0 0
1875 135 4 -4.2000000000000002e+00 -9.0932999999999997e-01 0.0000000000000000e+00 0 0 0
1885 145 4 -3.6749999999999998e+00 -1.8186500000000001e+00 0.0000000000000000e+00 0 0 0
1895 155 4 -3.1499999999999999e+00 -9.0932999999999997e-01 0.0000000000000000e+00 0 0 0
1905 165 4 -2.6250000000000000e+00 -1.8186500000000001e+00 0.0000000000000000e+00 0 0 0
1866 126 4 -4.7249999999999996e+00 0.0000000000000000e+00 0.0000000000000000e+00 0 0 0
1886 146 4 -3.6749999999999998e+00 0.0000000000000000e+00 0.0000000000000000e+00 0 0 0
1906 166 4 -2.6250000000000000e+00 0.0000000000000000e+00 0.0000000000000000e+00 0 0 0
1915 175 4 -2.1000000000000001e+00 -9.0932999999999997e-01 0.0000000000000000e+00 0 0 0
1925 185 4 -1.5750000000000000e+00 -1.8186500000000001e+00 0.0000000000000000e+00 0 0 0
1935 195 4 -1.0500000000000000e+00 -9.0932999999999997e-01 0.0000000000000000e+00 0 0 0
1945 205 4 -5.2500000000000002e-01 -1.8186500000000001e+00 0.0000000000000000e+00 0 0 0
1955 215 4 0.0000000000000000e+00 -9.0932999999999997e-01 0.0000000000000000e+00 0 0 0
1946 206 4 -5.2500000000000002e-01 0.0000000000000000e+00 0.0000000000000000e+00 0 0 0
1926 186 4 -1.5750000000000000e+00 0.0000000000000000e+00 0.0000000000000000e+00 0 0 0
31 2 1 -5.9062500000000000e+00 -8.3354800000000004e+00 1.6875024916199077e+00 0 0 0
1 1 1 -7.4812500000000002e+00 -6.8199399999999999e+00 1.6875024916199077e+00 0 0 0
32 2 2 -5.7992612466922413e+00 -7.5067601773746757e+00 2.1804886238721881e+00 0 0 0
1565 53 2 -6.3608869597910109e+00 -8.7809205623701576e+00 3.6527072199388457e+00 0 1 0
1564 53 2 -5.7914534124695738e+00 -8.9619582162626905e+00 2.8046427940390326e+00 0 1 0
5 1 2 -7.8004954369455080e+00 -8.3281033313196744e+00 3.3385349446906702e+00 0 0 0
61 3 1 -4.3312499999999998e+00 -6.8199399999999999e+00 1.6875024916199077e+00 0 0 0
1563 53 2 -4.9435056764681260e+00 -8.4047944274455588e+00 2.3966639718843594e+00 0 1 0
64 3 2 -3.3237407932058374e+00 -7.4632050020312901e+00 3.2389309055524036e+00 0 0 0
91 4 1 -2.7562500000000001e+00 -8.3354800000000004e+00 1.6875024916199077e+00 0 0 0
63 3 2 -3.1783934172492003e+00 -7.3924057423304284e+00 2.2922389636698544e+00 0 0 0
92 4 2 -2.8647389320968006e+00 -8.8020333166431577e+00 2.5324992147120238e+00 0 0 0
1562 53 2 -4.7982203464084359e+00 -8.9668612411933015e+00 1.6585275727842261e+00 0 1 0
121 5 1 -1.1812499999999999e+00 -6.8199399999999999e+00 1.6875024916199077e+00 0 0 0
122 5 2 -3.1169336533697695e-01 -6.9844207251543198e+00 1.9176224434162541e+00 0 0 0
123 5 2 -4.6381386652163631e-01 -7.9710325618879558e+00 2.0251095912918133e+00 0 0 0
65 3 2 -2.4788877922454300e+00 -7.8992813560369068e+00 3.3459789150865613e+00 0 0 0
124 5 2 -7.7732624716759202e-01 -7.7648732982317119e+00 2.8787031906562675e+00 0 0 0
125 5 2 -4.0053167599479261e-01 -6.9676180800165630e+00 3.2746275963043092e+00 0 0 0
66 3 2 -2.0893499911443807e+00 -8.7699445258733828e+00 3.0915359924873158e+00 0 0 0
33 2 2 -5.7297299443170902e+00 -6.7827648511894765e+00 2.7958380047796201e+00 0 0 0
331 12 1 -5.9062500000000000e+00 -5.3044000000000002e+00 1.6875024916199077e+00 0 0 0
333 12 2 -5.2709640001240041e+00 -5.4278429052527031e+00 3.5568312716590897e+00 0 0 0
332 12 2 -5.6018241003525979e+00 -5.1737787832547228e+00 2.6276328522456018e+00 0 0 0
302 11 2 -7.6129114789837935e+00 -4.5129959607579142e+00 2.2867243720324022e+00 0 0 0
303 11 2 -6.9258282823563038e+00 -4.4931172196541560e+00 2.8743828943789076e+00 0 0 0
2 1 2 -7.5521128889269198e+00 -6.4683821858662727e+00 2.6001784464434787e+00 0 0 0
34 2 2 -4.9782631760054503e+00 -6.5142084304317223e+00 3.3731989562812879e+00 0 0 0
62 3 2 -3.4228564552253222e+00 -6.7578432255980170e+00 1.5712986476842978e+00 0 0 0
364 13 2 -3.8984042880533241e+00 -5.6911286171988680e+00 2.8012756241938188e+00 0 0 0
391 14 1 -2.7562500000000001e+00 -5.3044000000000002e+00 1.6875024916199077e+00 0 0 0
363 13 2 -4.4275677135362903e+00 -5.3581937768232173e+00 2.1159991502276854e+00 0 0 0
362 13 2 -4.9116986278371275e+00 -4.5859139342132753e+00 1.7880542104054269e+00 0 0 0
365 13 2 -3.0048925415979819e+00 -5.9812709008206122e+00 2.8220879567185326e+00 0 0 0
366 13 2 -3.0778381220435223e+00 -5.5450462209163831e+00 3.7736888626873597e+00 0 0 0
392 14 2 -1.9273990233374410e+00 -5.1057738024320010e+00 2.1975009242682946e+00 0 0 0
393 14 2 -2.0435184172103593e+00 -5.5666918066921109e+00 3.0403811046450788e+00 0 0 0
426 15 2 -3.9791119433360744e-01 -5.0127611427427956e+00 3.2654946011311101e+00 0 0 0
126 5 2 5.9019113975266893e-02 -6.1791068525309578e+00 3.4965339220165101e+00 0 0 0
301 11 1 -7.4812500000000002e+00 -3.7888500000000001e+00 1.6875024916199077e+00 0 0 0
615 21 2 -7.0452665563901036e+00 -2.7817995489470269e+00 2.8626683076713300e+00 0 0 0
614 21 2 -7.7166008602621945e+00 -3.0766732697387158e+00 3.5778512502817397e+00 0 0 0
631 22 1 -5.9062500000000000e+00 -2.2733099999999999e+00 1.6875024916199077e+00 0 0 0
616 21 2 -7.1884432507472269e+00 -2.4193837512645291e+00 1.9923060698847528e+00 0 0 0
304 11 2 -7.0958634291878928e+00 -4.2451912546235180e+00 3.7581191363194542e+00 0 0 0
635 22 2 -4.0045371695105487e+00 -3.2064375862936938e+00 3.5194151850263626e+00 0 0 0
361 13 1 -4.3312499999999998e+00 -3.7888500000000001e+00 1.6875024916199077e+00 0 0 0
694 24 2 -3.3617017762166315e+00 -2.3185460734144363e+00 3.4582238173897668e+00 0 0 0
692 24 2 -3.1760722007218543e+00 -2.6879184577384190e+00 2.5469503360433130e+00 0 0 0
633 22 2 -5.0018534173901283e+00 -2.9124210955588294e+00 2.6234436140164998e+00 0 0 0
632 22 2 -4.9575728111033150e+00 -2.4790698505252173e+00 1.7290894378820851e+00 0 0 0
634 22 2 -4.9375945492388311e+00 -2.9378671952376529e+00 3.6098639158153727e+00 0 0 0
691 24 1 -2.7562500000000001e+00 -2.2733099999999999e+00 1.6875024916199077e+00 0 0 0
422 15 2 -1.6564711760876620e+00 -4.0398396515664823e+00 2.6293386037801101e+00 0 0 0
423 15 2 -2.0387775456549857e+00 -3.1568463558112394e+00 3.0249057519651563e+00 0 0 0
421 15 1 -1.1812499999999999e+00 -3.7888500000000001e+00 1.6875024916199077e+00 0 0 0
425 15 2 -1.1571995572220952e+00 -4.4602525656018113e+00 3.5291902222341567e+00 0 0 0
617 21 2 -7.2355232514576659e+00 -1.5648789949362056e+00 2.4571116112839433e+00 0 0 0
601 21 1 -7.4812500000000002e+00 -7.5777000000000005e-01 1.6875024916199077e+00 0 0 0
618 21 2 -6.9477314454094543e+00 -1.5107238648698746e+00 3.3702095861156369e+00 0 0 0
934 32 2 -6.0470091684315630e+00 -4.0404814175047826e-01 3.6317768698147006e+00 0 0 0
748 25 2 -3.1089799323695217e+00 -5.1000647246285780e-01 2.9303552431951130e+00 0 0 0
695 24 2 -3.9809392335792237e+00 -1.6957715557952719e+00 3.7235389853782297e+00 0 0 0
661 23 1 -4.3312499999999998e+00 -7.5777000000000005e-01 1.6875024916199077e+00 0 0 0
663 23 2 -5.1402617761965033e+00 -1.0977269443601185e+00 3.2921614191676061e+00 0 0 0
662 23 2 -4.3909529499391873e+00 -8.8016004118791202e-01 2.6547269507481204e+00 0 0 0
749 25 2 -3.4019361221910800e+00 -7.1094475876470650e-02 3.6563360695609264e+00 0 0 0
747 25 2 -2.7248618658795398e+00 -1.1501845815972322e+00 3.5717897290634104e+00 0 0 0
693 24 2 -2.5109763663616866e+00 -2.0659251425934873e+00 2.9913857668267729e+00 0 0 0
722 25 2 -2.0009134284658643e+00 -1.1120903438228598e+00 2.0649913201566514e+00 0 0 0
721 25 1 -1.1812499999999999e+00 -7.5777000000000005e-01 1.6875024916199077e+00 0 0 0
723 25 2 -1.1881541446412927e+00 -1.1521630181382487e+00 2.6692865441855052e+00 0 0 0
724 25 2 -7.4711762796411829e-01 -4.0179852182647918e-01 3.1445442092214324e+00 0 0 0
726 25 2 -1.8358342867329671e+00 1.7887651801302886e-02 1.9982106951743499e+00 0 0 0
1566 53 2 -5.8337070919507976e+00 -8.3560932295030188e+00 4.3824980584163269e+00 0 1 0
1568 53 2 -5.8603948112912372e+00 -7.3547321819719276e+00 5.9958267552722697e+00 0 1 0
1567 53 2 -5.8528495478157154e+00 -7.6780206777540760e+00 5.0874065776380073e+00 0 1 0
36 2 2 -5.3279041151886908e+00 -6.8241844221871224e+00 4.2526268220713721e+00 0 0 0
1569 53 2 -6.7557418720782358e+00 -7.6487394853798074e+00 5.7533294098774883e+00 0 1 0
6 1 2 -7.2882715255979127e+00 -7.8079325345646753e+00 4.0812826426249513e+00 0 0 0
7 1 2 -7.7103395530302539e+00 -7.3591736107752563e+00 4.8601787463440083e+00 0 0 0
38 2 2 -4.5698331216627430e+00 -7.1279130917267937e+00 5.7337543494272918e+00 0 0 0
40 2 2 -3.8011617908223347e+00 -8.2374199933427033e+00 5.5352945330970993e+00 0 0 0
130 5 2 -5.5574093631553079e-01 -7.8300338577844402e+00 4.2272496452084241e+00 0 0 0
67 3 2 -1.7822918005269905e+00 -9.0553521266451504e+00 4.0185738967105760e+00 0 0 0
68 3 2 -2.2131434364015021e+00 -9.0198576580084424e+00 4.9756594361927560e+00 0 0 0
131 5 2 -2.4872456421194045e-01 -8.1065787001523919e+00 5.0701362704213064e+00 0 0 0
129 5 2 2.5901640121336458e-02 -7.1279580241300549e+00 4.4361762019845941e+00 0 0 0
334 12 2 -5.9413127742391563e+00 -5.2017965267435935e+00 4.1993324725208057e+00 0 0 0
335 12 2 -5.7291772454870173e+00 -5.5616158318774804e+00 5.0950338560898034e+00 0 0 0
336 12 2 -5.8150021375011409e+00 -5.4380436759008184e+00 6.0045918116117702e+00 0 0 0
337 12 2 -6.2486872827033473e+00 -6.3015853586565980e+00 5.6834957626469853e+00 0 0 0
37 2 2 -5.2437405518833318e+00 -6.5746639321614522e+00 5.1881594053142734e+00 0 0 0
8 1 2 -7.5177169464653861e+00 -6.6148025535452470e+00 5.5684087693731810e+00 0 0 0
35 2 2 -4.4976787203481168e+00 -6.3685032008119453e+00 4.2573508866501886e+00 0 0 0
367 13 2 -3.0391401260434701e+00 -5.1206588938990771e+00 4.5996861304621630e+00 0 0 0
368 13 2 -3.8423681729538175e+00 -4.8300399418172191e+00 5.0816529876504513e+00 0 0 0
427 15 2 -4.3128902795464474e-01 -5.2075928177936648e+00 4.2472125025304148e+00 0 0 0
394 14 2 -1.8264492886309984e+00 -5.4315894664213626e+00 4.0921381757895281e+00 0 0 0
397 14 2 -2.4106532748477574e+00 -5.7942870248161036e+00 5.3711314403407977e+00 0 0 0
395 14 2 -1.1557729897925304e+00 -6.0360212306279211e+00 4.5260358249740218e+00 0 0 0
396 14 2 -1.4907032194754679e+00 -6.2237986422713343e+00 5.4738031313590030e+00 0 0 0
398 14 2 -2.4153355352745534e+00 -4.9447825208501497e+00 5.8250061033333322e+00 0 0 0
428 15 2 -4.1288315219318911e-01 -5.3862487690133500e+00 5.2021636755915130e+00 0 0 0
128 5 2 -3.3320985327874786e-01 -6.7041221439488607e+00 5.1642664592775995e+00 0 0 0
630 21 3 -7.7371392426705796e+00 -2.4143238837020133e+00 4.9132025383033824e+00 0 0 0
306 11 2 -6.8596334208640659e+00 -4.3668234245266460e+00 5.3662959137869573e+00 0 0 0
305 11 2 -7.4945867188697539e+00 -4.2204031998406775e+00 4.6253581557541796e+00 0 0 0
638 22 2 -5.3301138945880320e+00 -3.5465683770788212e+00 4.9114464046923665e+00 0 0 0
307 11 2 -5.9886752701162660e+00 -3.9549946739134776e+00 5.4609499288291810e+00 0 0 0
639 22 2 -5.8794461951671426e+00 -3.0055146671647552e+00 4.3845766366687640e+00 0 0 0
641 22 2 -6.8826874882514328e+00 -3.2296075692517867e+00 5.3102272720065731e+00 0 0 0
640 22 2 -6.6947086207611788e+00 -2.5673461644255515e+00 4.6248548346815737e+00 0 0 0
642 22 2 -7.3372489937070471e+00 -2.5951368487735453e+00 5.8747866220182443e+00 0 0 0
636 22 2 -3.9066842933715029e+00 -4.0624070216316177e+00 3.9159775488487076e+00 0 0 0
637 22 2 -4.8338381780226918e+00 -3.8806888603761323e+00 4.1687512821851467e+00 0 0 0
399 14 2 -3.1511868358472177e+00 -4.3362933859470640e+00 5.8023166432728139e+00 0 0 0
369 13 2 -4.0498004025485734e+00 -3.8036201596075454e+00 5.0676167070185798e+00 0 0 0
370 13 2 -4.7603220819161809e+00 -4.1772465199767614e+00 5.7250290225086564e+00 0 0 0
424 15 2 -1.6226400709023208e+00 -3.6584901816758335e+00 3.9015344383675181e+00 0 0 0
458 16 2 -9.1590745694957321e-01 -3.1965840189526213e+00 5.0680424417248027e+00 0 0 0
459 16 2 -1.0350781883003504e+00 -3.0728688117398288e+00 5.9750457029706032e+00 0 0 0
742 25 2 -9.3455353759019510e-01 -2.1752927696920530e+00 4.4098091638085322e+00 0 0 0
743 25 2 -1.8043575745805229e+00 -2.3352720278286268e+00 4.0615593859374810e+00 0 0 0
456 16 2 -6.2727211492352691e-02 -3.8645023086029924e+00 4.5281681950444419e+00 0 0 0
457 16 2 1.0458765528336774e-02 -3.2947091572314759e+00 5.2804591387153783e+00 0 0 0
936 32 2 -7.0170693270917655e+00 -3.9008431425359535e-01 4.9220352838136927e+00 0 0 0
619 21 2 -7.0419109015652577e+00 -9.9036409573345441e-01 4.1827546320194386e+00 0 0 0
937 32 2 -6.9921195240378751e+00 -1.1027529579188082e+00 5.5646257228353901e+00 0 0 0
620 21 2 -7.8395756804488572e+00 -5.2670406742633191e-01 4.0110259220292113e+00 0 0 0
935 32 2 -6.3304280438727369e+00 7.0887788944258553e-02 4.4717420585081937e+00 0 0 0
696 24 2 -3.9849088071964149e+00 -1.9584524727079800e+00 4.7295090867230494e+00 0 0 0
665 23 2 -4.5804925253793529e+00 -5.8191532913477728e-01 5.0751256492961678e+00 0 0 0
697 24 2 -4.4099926012250918e+00 -2.0649557499858116e+00 5.5385181851180167e+00 0 0 0
664 23 2 -4.6856772661735242e+00 -7.4788312185005656e-01 4.1572227623013900e+00 0 0 0
750 25 3 -3.8756454741969679e+00 2.8933958600694892e-02 4.4850164199850164e+00 0 0 0
746 25 2 -2.3728527744514474e+00 -1.0686308203606112e+00 4.4659327407112528e+00 0 0 0
745 25 2 -2.4248942098568982e+00 -1.3204216710287755e+00 5.3940818680402298e+00 0 0 0
744 25 2 -2.0111730685194273e+00 -2.0747021975497821e+00 5.0189614776872284e+00 0 0 0
740 25 2 -1.1104625035914120e+00 -9.5284261730963415e-01 4.2311423530290488e+00 0 0 0
741 25 2 -4.5354326851449495e-01 -1.3872163455297042e+00 4.7286305940598945e+00 0 0 0
739 25 2 -1.4198028764029684e+00 -2.3072213006093148e-02 4.5060399869504604e+00 0 0 0
11 1 2 -7.1260602026039992e+00 -7.7004651262788535e+00 7.4648624618930093e+00 0 0 0
1571 53 2 -6.0584256132967766e+00 -8.6094342645796686e+00 6.6421913657546137e+00 0 1 0
1572 53 2 -5.2467747328851315e+00 -8.1160394583318123e+00 6.4850567991571237e+00 0 1 0
12 1 2 -6.7437859306335879e+00 -8.5388882939862043e+00 7.6937925743430151e+00 0 0 0
1574 53 2 -5.3332761355423566e+00 -7.4250274019568323e+00 8.2778563243693011e+00 0 1 0
1570 53 2 -6.9842704935967488e+00 -8.4111039334162818e+00 6.3820373219280295e+00 0 1 0
10 1 2 -7.7914307665113380e+00 -7.2915312918080204e+00 6.8641021629216379e+00 0 0 0
1573 53 2 -5.1296146984156827e+00 -7.5188444687587515e+00 7.2688805204808329e+00 0 1 0
39 2 2 -3.9077328341038031e+00 -7.5639407849392244e+00 6.1833924028423572e+00 0 0 0
41 2 2 -3.5731718299939024e+00 -8.4413335491138817e+00 6.4902650588298414e+00 0 0 0
20 1 2 -3.4086752982591983e+00 -6.8402037948393044e+00 8.1661587960374806e+00 0 0 0
43 2 2 -3.6696491967622600e+00 -8.6778208190781232e+00 8.0090298810855653e+00 0 0 0
42 2 2 -3.0666816685453879e+00 -8.6305318047860169e+00 7.2931490408670463e+00 0 0 0
70 3 2 -1.8242149139018455e+00 -8.8444500486033348e+00 6.1873802061201220e+00 0 0 0
72 3 2 -1.5717195197154443e+00 -8.5705407748412625e+00 8.0672491999953646e+00 0 0 0
71 3 2 -1.7755082848632582e+00 -8.5129887321460096e+00 7.1086489762034546e+00 0 0 0
338 12 2 -6.6509405711681469e+00 -6.7018952523132844e+00 6.5368851499281124e+00 0 0 0
341 12 2 -7.2943043571639539e+00 -4.5373462223188463e+00 7.4230148980444044e+00 0 0 0
339 12 2 -7.1787499826598760e+00 -5.9191759573034144e+00 6.5678287413455783e+00 0 0 0
340 12 2 -7.1295731874900685e+00 -5.4865111586641193e+00 7.4309982664166938e+00 0 0 0
309 11 2 -5.9515164395752622e+00 -4.5268352772120615e+00 7.1551969324816360e+00 0 0 0
30 1 3 -2.9907281079853849e+00 -6.7286502861307627e+00 6.6929230369998631e+00 0 0 0
18 1 2 -4.6623360399123888e+00 -5.3649402285292203e+00 8.0621033364172021e+00 0 0 0
19 1 2 -4.1663100568498477e+00 -6.1526846570775184e+00 8.0793282549372147e+00 0 0 0
27 1 2 -9.7068205111276051e-01 -6.2205650237864631e+00 6.8416486342907481e+00 0 0 0
28 1 2 -1.6817522839722781e+00 -5.6843075434859971e+00 6.5153964873724703e+00 0 0 0
29 1 2 -2.1431589658069687e+00 -6.3500231685323154e+00 7.0208758003324094e+00 0 0 0
26 1 2 -6.7890637516660868e-01 -6.6822650444025067e+00 7.7133697904498666e+00 0 0 0
342 12 2 -7.1256872724230238e+00 -3.9484035107598356e+00 8.2201072345774264e+00 0 0 0
308 11 2 -5.6717920690830814e+00 -4.4421620834475801e+00 6.2082706962845124e+00 0 0 0
310 11 2 -6.2553624092231068e+00 -4.0016209108144070e+00 7.8617870979308204e+00 0 0 0
643 22 2 -7.3070882248182825e+00 -2.3595324727643114e+00 6.8311113827640240e+00 0 0 0
698 24 2 -4.7641839451269927e+00 -2.3171836750128039e+00 6.3990978186538410e+00 0 0 0
371 13 2 -4.8681094097775661e+00 -3.5499219539773312e+00 6.4159124574941560e+00 0 0 0
372 13 2 -4.5053679087921426e+00 -4.3096645918072332e+00 6.9799697994672227e+00 0 0 0
402 14 2 -3.3739508848862632e+00 -3.3905410020028102e+00 7.5830426958079640e+00 0 0 0
401 14 2 -3.1897610181797642e+00 -2.8082689587164356e+00 6.8900448566777062e+00 0 0 0
400 14 2 -3.0710697628386994e+00 -3.6212086866521545e+00 6.4423272847439357e+00 0 0 0
373 13 2 -4.1639776927626828e+00 -4.0104445029550444e+00 7.7929591662777780e+00 0 0 0
759 26 2 -3.7797574936721007e-01 -3.5981996327531087e+00 7.0017609148672504e+00 0 0 0
460 16 2 -1.4164105808856708e+00 -2.4522306693727325e+00 6.6674449790938093e+00 0 0 0
760 26 2 -8.9882368695704151e-01 -4.2023502597592231e+00 7.6046240614788454e+00 0 0 0
403 14 2 -2.4559019145322742e+00 -3.3490566917859539e+00 7.9653282271288557e+00 0 0 0
644 22 2 -7.7866718367448069e+00 -1.8531119537964480e+00 7.5204970791362609e+00 0 0 0
940 32 2 -6.3565188667593482e+00 -5.0240107988289617e-01 8.2683990609146427e+00 0 0 0
938 32 2 -6.8721551739906843e+00 -6.5073575091224245e-01 6.4013475533119459e+00 0 0 0
939 32 2 -6.6795421730936591e+00 -8.8536621370313928e-01 7.4521164318185482e+00 0 0 0
701 24 2 -5.2654437672554906e+00 -1.8400657483755309e+00 8.0373104978055760e+00 0 0 0
702 24 2 -5.7060359673327428e+00 -1.3611183926917088e+00 7.3181007107939600e+00 0 0 0
704 24 2 -4.2132507357807834e+00 -1.0747458193054233e+00 8.2109970651914796e+00 0 0 0
699 24 2 -4.3792128049054853e+00 -1.4927661199010398e+00 6.7119023788379355e+00 0 0 0
700 24 2 -4.4558543584091490e+00 -1.9410448332866030e+00 7.5762531394898129e+00 0 0 0
969 33 2 -2.5617741450064169e+00 -5.4662577250400091e-01 6.1473621945336445e+00 0 0 0
703 24 2 -4.9464191388238783e+00 -8.1887278930607954e-01 7.5761761189652335e+00 0 0 0
668 23 2 -4.1698592755758597e+00 -1.9553537597974426e-02 6.9012015829897573e+00 0 0 0
805 27 2 -8.7184620035742721e-01 -9.8332687866182891e-02 7.0678793639657629e+00 0 0 0
804 27 2 -4.5516598564822025e-01 -7.2883860608295625e-01 6.5008495526921228e+00 0 0 0
461 16 2 -1.7874941140824592e+00 -1.5011094529864359e+00 6.7068545493819602e+00 0 0 0
462 16 2 -1.1405943173557904e+00 -1.5212447029341098e+00 7.4173271065746702e+00 0 0 0
806 27 2 -6.8019700347897305e-01 1.2847640219267990e-02 8.0009760027203836e+00 0 0 0
1576 53 2 -5.3628676431252291e+00 -7.2959105160010091e+00 9.7317318889619671e+00 0 1 0
1546 52 2 -5.3555093144365760e+00 -8.6941432720042311e+00 1.0247687804097252e+01 0 1 0
13 1 2 -6.4372060346640216e+00 -8.1190582765981691e+00 8.5416422816760029e+00 0 0 0
1575 53 2 -5.2916614756341547e+00 -7.9573558770118611e+00 9.0271631882444989e+00 0 1 0
14 1 2 -6.8765704402564012e+00 -7.1489993415746049e+00 8.5354997360672229e+00 0 0 0
1769 59 2 -6.7357943925058343e+00 -7.2402990916167553e+00 1.0550069789738806e+01 1 1 0
44 2 2 -3.3645180697131978e+00 -8.1662079288091967e+00 8.8654090279761224e+00 0 0 0
45 2 2 -3.3676043412811847e+00 -8.6785622637517399e+00 9.7128629670376672e+00 0 0 0
1577 53 2 -4.4772246341857054e+00 -7.5767663430419780e+00 9.7134460566018088e+00 0 1 0
1578 53 2 -3.8943770427023816e+00 -7.3624996355009484e+00 1.0417427065362922e+01 0 1 0
74 3 2 -4.0971360891258451e-01 -8.7270982501902914e+00 9.5699241781991411e+00 0 0 0
73 3 2 -1.1017647412283520e+00 -8.4395792266238487e+00 8.8773976458818247e+00 0 0 0
191 7 2 -1.1073503862686926e-01 -7.2121387720707721e+00 8.4802340612110214e+00 0 0 0
75 3 2 -1.4368340679648750e-01 -7.8448220511620175e+00 1.0013823264420532e+01 0 0 0
343 12 2 -6.9212294613469858e+00 -4.7307575528493944e+00 8.7235883819091882e+00 0 0 0
15 1 2 -6.0479930453288082e+00 -6.7243007947524163e+00 8.5500425611460535e+00 0 0 0
344 12 2 -6.9593509074777389e+00 -4.8860149420498882e+00 9.6884494063027855e+00 0 0 0
345 12 2 -6.1324893303452281e+00 -5.0125810805206656e+00 1.0140541532741834e+01 0 0 0
16 1 2 -5.5572107082005191e+00 -6.4106294857383919e+00 9.2881228515706411e+00 0 0 0
17 1 2 -4.9010625822436369e+00 -5.8213372114940123e+00 8.9424036982282864e+00 0 0 0
21 1 2 -2.6509422747801694e+00 -6.5648613280716708e+00 8.7261357006381175e+00 0 0 0
22 1 2 -2.8991930371243098e+00 -5.7280960252024764e+00 8.4171771276293104e+00 0 0 0
23 1 2 -2.6358387636677025e+00 -5.5906869512818291e+00 9.4225815476154882e+00 0 0 0
377 13 2 -4.3062940449576432e+00 -5.0313968762622663e+00 1.0358980341753012e+01 0 0 0
761 26 2 -6.1359683507836948e-01 -4.5784063905565322e+00 8.4326250491700652e+00 0 0 0
25 1 2 -1.0387168050654818e+00 -6.2402261226817810e+00 8.5630335356985778e+00 0 0 0
24 1 2 -1.7615234555602646e+00 -5.5659643614814165e+00 8.9424371633673054e+00 0 0 0
77 3 2 -2.7409416352463511e-01 -6.1346543269793656e+00 1.0221606826929561e+01 0 0 0
944 32 2 -6.6381967824003558e+00 -3.3611563243119931e+00 1.0039239916105693e+01 0 0 0
312 11 2 -5.6494102897494543e+00 -3.4199947686616237e+00 9.2863156207515303e+00 0 0 0
313 11 2 -5.3264503347731287e+00 -3.1752292241947169e+00 1.0255451480788672e+01 0 0 0
311 11 2 -5.5615314270938105e+00 -3.5079326787359033e+00 8.3589286190695109e+00 0 0 0
943 32 2 -6.9042666535114234e+00 -2.9529201608449176e+00 9.2132754783337116e+00 0 0 0
404 14 2 -2.7623661156737205e+00 -3.4363242211619998e+00 8.8519370802712540e+00 0 0 0
465 16 2 -2.8032670059569988e+00 -2.1747620661946252e+00 9.3929442467222781e+00 0 0 0
374 13 2 -4.2451724831433131e+00 -3.5845533074114906e+00 8.6795133597694178e+00 0 0 0
376 13 2 -3.8148905165140583e+00 -4.2775461012005449e+00 9.9205847074182909e+00 0 0 0
375 13 2 -4.6060550282086519e+00 -4.0898626128062725e+00 9.4397332685727786e+00 0 0 0
405 14 2 -2.1903815495177539e+00 -3.1812081012581799e+00 9.6918632684459158e+00 0 0 0
762 26 2 -4.8592148915763639e-01 -4.3266106758667746e+00 9.3556790860537227e+00 0 0 0
989 33 2 -8.3624126902405682e-01 -2.2171492659864862e+00 9.5576526554355432e+00 0 0 0
988 33 2 9.4123948495109452e-02 -2.4347996864684509e+00 9.6837084509574201e+00 0 0 0
763 26 2 -4.5350193077660111e-02 -4.2733024088131177e+00 1.0234495370990095e+01 0 0 0
406 14 2 -1.6217028576042121e+00 -3.1854664882991575e+00 1.0397445217798271e+01 0 0 0
942 32 2 -6.4633200292850539e+00 -2.1370972635616385e+00 9.1702488015885351e+00 0 0 0
941 32 2 -6.6130948558131806e+00 -1.2329695994666099e+00 9.1514489437277220e+00 0 0 0
1244 42 2 -6.6596416081109764e+00 1.0765249144842762e-01 9.4994749657828699e+00 0 0 0
1245 42 2 -6.3649459122544183e+00 4.9933158603949465e-02 1.0392051850426462e+01 0 0 0
707 24 2 -4.5685182572177245e+00 -1.7464819807597143e+00 1.0150977096544104e+01 0 0 0
466 16 2 -2.8788076228835715e+00 -1.5638185868700829e+00 1.0159429211765888e+01 0 0 0
705 24 2 -4.0662612709419843e+00 -1.2361019172444745e+00 9.1748292191119862e+00 0 0 0
706 24 2 -5.0220851838466967e+00 -1.2918479863107588e+00 9.4413296247398133e+00 0 0 0
809 27 2 -2.8338726357830288e+00 -2.4549696651301542e-01 9.4580105778006818e+00 0 0 0