LAMMPS (31 Mar 2017)
# 2-dimensional monoatomic gas

# basic parameters
units		lj
atom_style	atomic
boundary        p p p # periodic
dimension      	2

## style of the pair potential ##
pair_style      soft 2.5 # soft potential
#pair_style      lj/cut 2.5 # Lennard-Jones

# read in a conformation
read_data       2d_ideal.data
  orthogonal box = (0 0 0) to (22.3607 22.3607 2.23607)
  1 by 1 by 1 MPI processor grid
WARNING: Pair style in data file differs from currently defined pair style (../read_data.cpp:528)
  reading atoms ...
  100 atoms
  reading velocities ...
  100 velocities
reset_timestep	0

# Parameters for pair_style soft (here: interactions off)
pair_coeff      1 1 0.0 2.5

# parameters for Lennard-Jones (standard values)
#pair_coeff	1 1 1.0 1.0 2.5

# verlet-integration, thermostating, enforce 2d simulation
fix		1 all nve
#fix             2 all langevin 1.5 1.5 1.0 8217311
fix             2d all enforce2d

##############################
##### Velocity Histogram #####
##############################

# define absolute velocity of an atom
variable        v_abs atom sqrt(vx*vx+vy*vy+vz*vz)
fix             3 all ave/histo 1000 1000 1000000  0. 10. 50 v_v_abs file v_hist.txt mode vector

###############################
## Mean Squared Displacement ##
###############################

# calculate and output MSD at regular time intervals
compute         1 all msd
fix             4 all ave/time 10 10 100 c_1[*] file msd.txt

# print out thermodynamic information regularly
thermo		10000

# run the simulation for X steps
run		1000000
Neighbor list info ...
  update every 1 steps, delay 10 steps, check yes
  max neighbors/atom: 2000, page size: 100000
  master list distance cutoff = 2.8
  ghost atom cutoff = 2.8
  binsize = 1.4, bins = 16 16 2
  1 neighbor lists, perpetual/occasional/extra = 1 0 0
  (1) pair soft, perpetual
      attributes: half, newton on
      pair build: half/bin/atomonly/newton
      stencil: half/bin/2d/newton
      bin: standard
Per MPI rank memory allocation (min/avg/max) = 3.05 | 3.05 | 3.05 Mbytes
Step Temp E_pair E_mol TotEng Press 
       0    1.4116397            0            0    1.3975233   0.27950466 
   10000    1.4116397            0            0    1.3975233   0.27950466 
   20000    1.4116397            0            0    1.3975233   0.27950466 
   30000    1.4116397            0            0    1.3975233   0.27950466 
   40000    1.4116397            0            0    1.3975233   0.27950466 
   50000    1.4116397            0            0    1.3975233   0.27950466 
   60000    1.4116397            0            0    1.3975233   0.27950466 
   70000    1.4116397            0            0    1.3975233   0.27950466 
   80000    1.4116397            0            0    1.3975233   0.27950466 
   90000    1.4116397            0            0    1.3975233   0.27950466 
  100000    1.4116397            0            0    1.3975233   0.27950466 
  110000    1.4116397            0            0    1.3975233   0.27950466 
  120000    1.4116397            0            0    1.3975233   0.27950466 
  130000    1.4116397            0            0    1.3975233   0.27950466 
  140000    1.4116397            0            0    1.3975233   0.27950466 
  150000    1.4116397            0            0    1.3975233   0.27950466 
  160000    1.4116397            0            0    1.3975233   0.27950466 
  170000    1.4116397            0            0    1.3975233   0.27950466 
  180000    1.4116397            0            0    1.3975233   0.27950466 
  190000    1.4116397            0            0    1.3975233   0.27950466 
  200000    1.4116397            0            0    1.3975233   0.27950466 
  210000    1.4116397            0            0    1.3975233   0.27950466 
  220000    1.4116397            0            0    1.3975233   0.27950466 
  230000    1.4116397            0            0    1.3975233   0.27950466 
  240000    1.4116397            0            0    1.3975233   0.27950466 
  250000    1.4116397            0            0    1.3975233   0.27950466 
  260000    1.4116397            0            0    1.3975233   0.27950466 
  270000    1.4116397            0            0    1.3975233   0.27950466 
  280000    1.4116397            0            0    1.3975233   0.27950466 
  290000    1.4116397            0            0    1.3975233   0.27950466 
  300000    1.4116397            0            0    1.3975233   0.27950466 
  310000    1.4116397            0            0    1.3975233   0.27950466 
  320000    1.4116397            0            0    1.3975233   0.27950466 
  330000    1.4116397            0            0    1.3975233   0.27950466 
  340000    1.4116397            0            0    1.3975233   0.27950466 
  350000    1.4116397            0            0    1.3975233   0.27950466 
  360000    1.4116397            0            0    1.3975233   0.27950466 
  370000    1.4116397            0            0    1.3975233   0.27950466 
  380000    1.4116397            0            0    1.3975233   0.27950466 
  390000    1.4116397            0            0    1.3975233   0.27950466 
  400000    1.4116397            0            0    1.3975233   0.27950466 
  410000    1.4116397            0            0    1.3975233   0.27950466 
  420000    1.4116397            0            0    1.3975233   0.27950466 
  430000    1.4116397            0            0    1.3975233   0.27950466 
  440000    1.4116397            0            0    1.3975233   0.27950466 
  450000    1.4116397            0            0    1.3975233   0.27950466 
  460000    1.4116397            0            0    1.3975233   0.27950466 
  470000    1.4116397            0            0    1.3975233   0.27950466 
  480000    1.4116397            0            0    1.3975233   0.27950466 
  490000    1.4116397            0            0    1.3975233   0.27950466 
  500000    1.4116397            0            0    1.3975233   0.27950466 
  510000    1.4116397            0            0    1.3975233   0.27950466 
  520000    1.4116397            0            0    1.3975233   0.27950466 
  530000    1.4116397            0            0    1.3975233   0.27950466 
  540000    1.4116397            0            0    1.3975233   0.27950466 
  550000    1.4116397            0            0    1.3975233   0.27950466 
  560000    1.4116397            0            0    1.3975233   0.27950466 
  570000    1.4116397            0            0    1.3975233   0.27950466 
  580000    1.4116397            0            0    1.3975233   0.27950466 
  590000    1.4116397            0            0    1.3975233   0.27950466 
  600000    1.4116397            0            0    1.3975233   0.27950466 
  610000    1.4116397            0            0    1.3975233   0.27950466 
  620000    1.4116397            0            0    1.3975233   0.27950466 
  630000    1.4116397            0            0    1.3975233   0.27950466 
  640000    1.4116397            0            0    1.3975233   0.27950466 
  650000    1.4116397            0            0    1.3975233   0.27950466 
  660000    1.4116397            0            0    1.3975233   0.27950466 
  670000    1.4116397            0            0    1.3975233   0.27950466 
  680000    1.4116397            0            0    1.3975233   0.27950466 
  690000    1.4116397            0            0    1.3975233   0.27950466 
  700000    1.4116397            0            0    1.3975233   0.27950466 
  710000    1.4116397            0            0    1.3975233   0.27950466 
  720000    1.4116397            0            0    1.3975233   0.27950466 
  730000    1.4116397            0            0    1.3975233   0.27950466 
  740000    1.4116397            0            0    1.3975233   0.27950466 
  750000    1.4116397            0            0    1.3975233   0.27950466 
  760000    1.4116397            0            0    1.3975233   0.27950466 
  770000    1.4116397            0            0    1.3975233   0.27950466 
  780000    1.4116397            0            0    1.3975233   0.27950466 
  790000    1.4116397            0            0    1.3975233   0.27950466 
  800000    1.4116397            0            0    1.3975233   0.27950466 
  810000    1.4116397            0            0    1.3975233   0.27950466 
  820000    1.4116397            0            0    1.3975233   0.27950466 
  830000    1.4116397            0            0    1.3975233   0.27950466 
  840000    1.4116397            0            0    1.3975233   0.27950466 
  850000    1.4116397            0            0    1.3975233   0.27950466 
  860000    1.4116397            0            0    1.3975233   0.27950466 
  870000    1.4116397            0            0    1.3975233   0.27950466 
  880000    1.4116397            0            0    1.3975233   0.27950466 
  890000    1.4116397            0            0    1.3975233   0.27950466 
  900000    1.4116397            0            0    1.3975233   0.27950466 
  910000    1.4116397            0            0    1.3975233   0.27950466 
  920000    1.4116397            0            0    1.3975233   0.27950466 
  930000    1.4116397            0            0    1.3975233   0.27950466 
  940000    1.4116397            0            0    1.3975233   0.27950466 
  950000    1.4116397            0            0    1.3975233   0.27950466 
  960000    1.4116397            0            0    1.3975233   0.27950466 
  970000    1.4116397            0            0    1.3975233   0.27950466 
  980000    1.4116397            0            0    1.3975233   0.27950466 
  990000    1.4116397            0            0    1.3975233   0.27950466 
 1000000    1.4116397            0            0    1.3975233   0.27950466 
Loop time of 17.4535 on 1 procs for 1000000 steps with 100 atoms

Performance: 24751536.224 tau/day, 57295.223 timesteps/s
99.9% CPU use with 1 MPI tasks x no OpenMP threads

MPI task timing breakdown:
Section |  min time  |  avg time  |  max time  |%varavg| %total
---------------------------------------------------------------
Pair    | 13.393     | 13.393     | 13.393     |   0.0 | 76.73
Neigh   | 1.7224     | 1.7224     | 1.7224     |   0.0 |  9.87
Comm    | 0.56053    | 0.56053    | 0.56053    |   0.0 |  3.21
Output  | 0.0015762  | 0.0015762  | 0.0015762  |   0.0 |  0.01
Modify  | 1.4171     | 1.4171     | 1.4171     |   0.0 |  8.12
Other   |            | 0.3591     |            |       |  2.06

Nlocal:    100 ave 100 max 100 min
Histogram: 1 0 0 0 0 0 0 0 0 0
Nghost:    57 ave 57 max 57 min
Histogram: 1 0 0 0 0 0 0 0 0 0
Neighs:    221 ave 221 max 221 min
Histogram: 1 0 0 0 0 0 0 0 0 0

Total # of neighbors = 221
Ave neighs/atom = 2.21
Neighbor list builds = 100000
Dangerous builds = 100000

# write out the final conformation (to continue)
write_data	2d_ideal_final.data
Total wall time: 0:00:17
