LAMMPS data file via write_data, version 31 Mar 2017, timestep = 10000000

40 atoms
1 atom types
39 bonds
1 bond types

-2.0000000000000000e+01 2.0000000000000000e+01 xlo xhi
-2.0000000000000000e+01 2.0000000000000000e+01 ylo yhi
-2.0000000000000000e+00 2.0000000000000000e+00 zlo zhi

Masses

1 1

Pair Coeffs # lj/cut

1 1 1

Bond Coeffs # fene

1 30 1.5 1 1

Atoms # molecular

23 1 1 -1.9081299676616940e+01 1.9954109079166610e+01 0.0000000000000000e+00 2 -7 0
25 1 1 -1.7057319310309587e+01 1.9899464775637099e+01 0.0000000000000000e+00 2 -7 0
26 1 1 -1.7158132397443541e+01 -1.9171261776083497e+01 0.0000000000000000e+00 2 -6 0
24 1 1 -1.8108878297916704e+01 1.9899694215410314e+01 0.0000000000000000e+00 2 -7 0
27 1 1 -1.6397800962638723e+01 -1.8589473196936673e+01 0.0000000000000000e+00 2 -6 0
28 1 1 -1.5529011433931572e+01 -1.8151422182832221e+01 0.0000000000000000e+00 2 -6 0
29 1 1 -1.4918504096308471e+01 -1.7361680039738587e+01 0.0000000000000000e+00 2 -6 0
30 1 1 -1.5638449370906663e+01 -1.6703308972253513e+01 0.0000000000000000e+00 2 -6 0
31 1 1 -1.4957356739565382e+01 -1.6037617844699010e+01 0.0000000000000000e+00 2 -6 0
32 1 1 -1.4061486362890427e+01 -1.6414024706443158e+01 0.0000000000000000e+00 2 -6 0
33 1 1 -1.3868391769385624e+01 -1.5486607471691425e+01 0.0000000000000000e+00 2 -6 0
34 1 1 -1.4579917587436436e+01 -1.4702300246707303e+01 0.0000000000000000e+00 2 -6 0
35 1 1 -1.4726189528137979e+01 -1.3707566104717056e+01 0.0000000000000000e+00 2 -6 0
36 1 1 -1.4036766768488878e+01 -1.3043375445246818e+01 0.0000000000000000e+00 2 -6 0
37 1 1 -1.4673675048949772e+01 -1.2260108866749459e+01 0.0000000000000000e+00 2 -6 0
38 1 1 -1.4353457007408142e+01 -1.1345189260136541e+01 0.0000000000000000e+00 2 -6 0
39 1 1 -1.4382742927449470e+01 -1.0389576950417714e+01 0.0000000000000000e+00 2 -6 0
40 1 1 -1.5196447484385281e+01 -9.7624284137398476e+00 0.0000000000000000e+00 2 -6 0
1 1 1 7.1181152825799652e+00 1.3614901633796499e+01 0.0000000000000000e+00 1 -7 0
2 1 1 6.5851707287954149e+00 1.4388766102587782e+01 0.0000000000000000e+00 1 -7 0
4 1 1 7.7967358253996855e+00 1.5877268124139144e+01 0.0000000000000000e+00 1 -7 0
5 1 1 8.7621571926366624e+00 1.5872780419663343e+01 0.0000000000000000e+00 1 -7 0
3 1 1 7.1981700248113372e+00 1.5133690735615374e+01 0.0000000000000000e+00 1 -7 0
6 1 1 9.7511983722492150e+00 1.5993393782705361e+01 0.0000000000000000e+00 1 -7 0
14 1 1 1.5833953859681007e+01 1.7879382866648772e+01 0.0000000000000000e+00 1 -7 0
16 1 1 1.7262659790490389e+01 1.7749402236768780e+01 0.0000000000000000e+00 1 -7 0
7 1 1 1.0037403918101811e+01 1.6914617900106123e+01 0.0000000000000000e+00 1 -7 0
12 1 1 1.3943784993137028e+01 1.8526144819040212e+01 0.0000000000000000e+00 1 -7 0
13 1 1 1.4854546475951818e+01 1.7983773731627860e+01 0.0000000000000000e+00 1 -7 0
15 1 1 1.6637542698627001e+01 1.8441791626159979e+01 0.0000000000000000e+00 1 -7 0
17 1 1 1.8212620904135093e+01 1.8225005811999385e+01 0.0000000000000000e+00 1 -7 0
19 1 1 1.9404062115135435e+01 1.7451073735790342e+01 0.0000000000000000e+00 1 -7 0
20 1 1 -1.9982501113744192e+01 1.8209319072156745e+01 0.0000000000000000e+00 2 -7 0
8 1 1 1.0808105223909552e+01 1.7528896850476269e+01 0.0000000000000000e+00 1 -7 0
11 1 1 1.3067208573473836e+01 1.8385822390774113e+01 0.0000000000000000e+00 1 -7 0
18 1 1 1.8478743017000770e+01 1.7296451564347645e+01 0.0000000000000000e+00 1 -7 0
9 1 1 1.1693441457930572e+01 1.7194444852775170e+01 0.0000000000000000e+00 1 -7 0
10 1 1 1.2352870240863709e+01 1.7864279483548053e+01 0.0000000000000000e+00 1 -7 0
21 1 1 1.9351454312255822e+01 1.8831094054096720e+01 0.0000000000000000e+00 1 -7 0
22 1 1 -1.9786786960616070e+01 1.9336006904948256e+01 0.0000000000000000e+00 2 -7 0

Velocities

23 -9.4470634303253143e-01 -1.5973360011968054e+00 0.0000000000000000e+00
25 -2.2461319466874881e+00 2.1259972412326791e+00 0.0000000000000000e+00
26 -3.0819572517053007e-01 1.7567441780584292e+00 0.0000000000000000e+00
24 -5.6310817345511721e-01 -1.0217455829536821e+00 0.0000000000000000e+00
27 -3.9441219704882289e+00 1.1948627493782098e+00 0.0000000000000000e+00
28 8.6121437201596285e-01 -1.5750068668713535e+00 0.0000000000000000e+00
29 -2.1439033982986584e+00 -2.0612110800228969e+00 0.0000000000000000e+00
30 7.6904792485998774e-01 1.0849342968261355e+00 0.0000000000000000e+00
31 9.9574266786516830e-01 -2.8605146138098958e-01 0.0000000000000000e+00
32 -1.2683028709952351e+00 4.4513257218788821e-01 0.0000000000000000e+00
33 -1.3550761417681021e+00 5.6107584287006163e-01 0.0000000000000000e+00
34 -2.2541538818349408e-01 -6.9546452243723633e-01 0.0000000000000000e+00
35 9.5213331993040551e-01 -1.4433478264931725e+00 0.0000000000000000e+00
36 -1.7857294201108451e+00 -2.1870677502547062e+00 0.0000000000000000e+00
37 7.4099563067838059e-01 4.3697720066046170e-01 0.0000000000000000e+00
38 -6.1499486529972613e-01 -7.0530476474087478e-01 0.0000000000000000e+00
39 1.3605699578889931e-02 5.6482799376208392e-01 0.0000000000000000e+00
40 5.3295385113244564e-01 -1.2898705085752999e+00 0.0000000000000000e+00
1 -4.6138066121654092e-01 -1.9735348006434006e+00 0.0000000000000000e+00
2 -8.1452220325120950e-01 8.4359771938177153e-01 0.0000000000000000e+00
4 4.8784453271684275e-01 -1.2854416493127202e-01 0.0000000000000000e+00
5 3.3249804048688691e-01 4.7226268133331339e-01 0.0000000000000000e+00
3 -2.2388112809078105e+00 -1.5526872911747955e+00 0.0000000000000000e+00
6 1.5859903584464841e+00 -1.7361477726472674e+00 0.0000000000000000e+00
14 2.4883158272222743e+00 3.1655555969058863e-01 0.0000000000000000e+00
16 1.1839758757556296e+00 5.3742025360367462e-01 0.0000000000000000e+00
7 4.5862464797553598e-01 -3.3407960823266736e-01 0.0000000000000000e+00
12 -1.3434642902973566e+00 1.5278059556323582e+00 0.0000000000000000e+00
13 1.7041340458445569e+00 -7.1326272293855331e-01 0.0000000000000000e+00
15 4.9593676675460591e-01 1.3700613081165749e+00 0.0000000000000000e+00
17 -1.0608627702221594e+00 3.3855762515714960e-01 0.0000000000000000e+00
19 -3.2181937282178716e+00 -3.6796672399738500e-01 0.0000000000000000e+00
20 1.5145197609079037e+00 -1.7464850108020244e-01 0.0000000000000000e+00
8 3.3162290477458878e-01 -1.1076773078220625e+00 0.0000000000000000e+00
11 -1.1375245360480568e+00 5.0021511494332427e-02 0.0000000000000000e+00
18 -3.7127862179428397e+00 1.6146519806765569e+00 0.0000000000000000e+00
9 7.6256727854255280e-01 -1.0565821909744579e+00 0.0000000000000000e+00
10 6.0864586695804274e-02 -1.3022363579548238e-01 0.0000000000000000e+00
21 -3.0815863099353369e-01 -1.5597766931723953e+00 0.0000000000000000e+00
22 1.7843700657966153e+00 2.5211103312083444e-01 0.0000000000000000e+00

Bonds

1 1 23 24
2 1 25 26
3 1 26 27
4 1 24 25
5 1 27 28
6 1 28 29
7 1 29 30
8 1 30 31
9 1 31 32
10 1 32 33
11 1 33 34
12 1 34 35
13 1 35 36
14 1 36 37
15 1 37 38
16 1 38 39
17 1 39 40
18 1 1 2
19 1 2 3
20 1 4 5
21 1 5 6
22 1 3 4
23 1 6 7
24 1 14 15
25 1 16 17
26 1 7 8
27 1 12 13
28 1 13 14
29 1 15 16
30 1 17 18
31 1 19 20
32 1 20 21
33 1 8 9
34 1 11 12
35 1 18 19
36 1 9 10
37 1 10 11
38 1 21 22
39 1 22 23
