LAMMPS data file via write_data, version 31 Mar 2017, timestep = 5000000

2101 atoms
5 atom types
1740 bonds
1 bond types

-7.8750000000000000e+00 7.8750000000000000e+00 xlo xhi
-9.0932499999999994e+00 9.0932499999999994e+00 ylo yhi
-3.0000000000000000e+00 4.0000000000000000e+01 zlo zhi

Masses

1 1
2 1
3 1
4 1
5 1

Pair Coeffs # lj/expand

1 1 1 0
2 1 1 0
3 1 1 0
4 0 0 0
5 1 1 3

Bond Coeffs # fene

1 30 1.5 1 1

Atoms # bond

1801 61 4 -7.8750000000000000e+00 -9.0932499999999994e+00 0.0000000000000000e+00 0 0 0
1802 62 4 -7.8750000000000000e+00 -7.2746000000000004e+00 0.0000000000000000e+00 0 0 0
1811 71 4 -7.3499999999999996e+00 -8.1839300000000001e+00 0.0000000000000000e+00 0 0 0
1821 81 4 -6.8250000000000002e+00 -9.0932499999999994e+00 0.0000000000000000e+00 0 0 0
1822 82 4 -6.8250000000000002e+00 -7.2746000000000004e+00 0.0000000000000000e+00 0 0 0
1831 91 4 -6.2999999999999998e+00 -8.1839300000000001e+00 0.0000000000000000e+00 0 0 0
1841 101 4 -5.7750000000000004e+00 -9.0932499999999994e+00 0.0000000000000000e+00 0 0 0
1842 102 4 -5.7750000000000004e+00 -7.2746000000000004e+00 0.0000000000000000e+00 0 0 0
1851 111 4 -5.2500000000000000e+00 -8.1839300000000001e+00 0.0000000000000000e+00 0 0 0
1861 121 4 -4.7249999999999996e+00 -9.0932499999999994e+00 0.0000000000000000e+00 0 0 0
1862 122 4 -4.7249999999999996e+00 -7.2746000000000004e+00 0.0000000000000000e+00 0 0 0
1871 131 4 -4.2000000000000002e+00 -8.1839300000000001e+00 0.0000000000000000e+00 0 0 0
1881 141 4 -3.6749999999999998e+00 -9.0932499999999994e+00 0.0000000000000000e+00 0 0 0
1882 142 4 -3.6749999999999998e+00 -7.2746000000000004e+00 0.0000000000000000e+00 0 0 0
1891 151 4 -3.1499999999999999e+00 -8.1839300000000001e+00 0.0000000000000000e+00 0 0 0
1901 161 4 -2.6250000000000000e+00 -9.0932499999999994e+00 0.0000000000000000e+00 0 0 0
1902 162 4 -2.6250000000000000e+00 -7.2746000000000004e+00 0.0000000000000000e+00 0 0 0
1911 171 4 -2.1000000000000001e+00 -8.1839300000000001e+00 0.0000000000000000e+00 0 0 0
1921 181 4 -1.5750000000000000e+00 -9.0932499999999994e+00 0.0000000000000000e+00 0 0 0
1922 182 4 -1.5750000000000000e+00 -7.2746000000000004e+00 0.0000000000000000e+00 0 0 0
1931 191 4 -1.0500000000000000e+00 -8.1839300000000001e+00 0.0000000000000000e+00 0 0 0
1941 201 4 -5.2500000000000002e-01 -9.0932499999999994e+00 0.0000000000000000e+00 0 0 0
1942 202 4 -5.2500000000000002e-01 -7.2746000000000004e+00 0.0000000000000000e+00 0 0 0
1812 72 4 -7.3499999999999996e+00 -6.3652800000000003e+00 0.0000000000000000e+00 0 0 0
1832 92 4 -6.2999999999999998e+00 -6.3652800000000003e+00 0.0000000000000000e+00 0 0 0
1803 63 4 -7.8750000000000000e+00 -5.4559499999999996e+00 0.0000000000000000e+00 0 0 0
1823 83 4 -6.8250000000000002e+00 -5.4559499999999996e+00 0.0000000000000000e+00 0 0 0
1843 103 4 -5.7750000000000004e+00 -5.4559499999999996e+00 0.0000000000000000e+00 0 0 0
1852 112 4 -5.2500000000000000e+00 -6.3652800000000003e+00 0.0000000000000000e+00 0 0 0
1872 132 4 -4.2000000000000002e+00 -6.3652800000000003e+00 0.0000000000000000e+00 0 0 0
1892 152 4 -3.1499999999999999e+00 -6.3652800000000003e+00 0.0000000000000000e+00 0 0 0
1863 123 4 -4.7249999999999996e+00 -5.4559499999999996e+00 0.0000000000000000e+00 0 0 0
1883 143 4 -3.6749999999999998e+00 -5.4559499999999996e+00 0.0000000000000000e+00 0 0 0
1903 163 4 -2.6250000000000000e+00 -5.4559499999999996e+00 0.0000000000000000e+00 0 0 0
1912 172 4 -2.1000000000000001e+00 -6.3652800000000003e+00 0.0000000000000000e+00 0 0 0
1932 192 4 -1.0500000000000000e+00 -6.3652800000000003e+00 0.0000000000000000e+00 0 0 0
1923 183 4 -1.5750000000000000e+00 -5.4559499999999996e+00 0.0000000000000000e+00 0 0 0
1943 203 4 -5.2500000000000002e-01 -5.4559499999999996e+00 0.0000000000000000e+00 0 0 0
1813 73 4 -7.3499999999999996e+00 -4.5466300000000004e+00 0.0000000000000000e+00 0 0 0
1833 93 4 -6.2999999999999998e+00 -4.5466300000000004e+00 0.0000000000000000e+00 0 0 0
1804 64 4 -7.8750000000000000e+00 -3.6373000000000002e+00 0.0000000000000000e+00 0 0 0
1824 84 4 -6.8250000000000002e+00 -3.6373000000000002e+00 0.0000000000000000e+00 0 0 0
1844 104 4 -5.7750000000000004e+00 -3.6373000000000002e+00 0.0000000000000000e+00 0 0 0
1814 74 4 -7.3499999999999996e+00 -2.7279800000000001e+00 0.0000000000000000e+00 0 0 0
1834 94 4 -6.2999999999999998e+00 -2.7279800000000001e+00 0.0000000000000000e+00 0 0 0
1853 113 4 -5.2500000000000000e+00 -4.5466300000000004e+00 0.0000000000000000e+00 0 0 0
1873 133 4 -4.2000000000000002e+00 -4.5466300000000004e+00 0.0000000000000000e+00 0 0 0
1893 153 4 -3.1499999999999999e+00 -4.5466300000000004e+00 0.0000000000000000e+00 0 0 0
1854 114 4 -5.2500000000000000e+00 -2.7279800000000001e+00 0.0000000000000000e+00 0 0 0
1864 124 4 -4.7249999999999996e+00 -3.6373000000000002e+00 0.0000000000000000e+00 0 0 0
1884 144 4 -3.6749999999999998e+00 -3.6373000000000002e+00 0.0000000000000000e+00 0 0 0
1874 134 4 -4.2000000000000002e+00 -2.7279800000000001e+00 0.0000000000000000e+00 0 0 0
1894 154 4 -3.1499999999999999e+00 -2.7279800000000001e+00 0.0000000000000000e+00 0 0 0
362 13 2 -3.5238419874369482e+00 -4.0072447742447821e+00 1.2255284092325442e+00 0 0 0
1913 173 4 -2.1000000000000001e+00 -4.5466300000000004e+00 0.0000000000000000e+00 0 0 0
1933 193 4 -1.0500000000000000e+00 -4.5466300000000004e+00 0.0000000000000000e+00 0 0 0
1904 164 4 -2.6250000000000000e+00 -3.6373000000000002e+00 0.0000000000000000e+00 0 0 0
1924 184 4 -1.5750000000000000e+00 -3.6373000000000002e+00 0.0000000000000000e+00 0 0 0
1944 204 4 -5.2500000000000002e-01 -3.6373000000000002e+00 0.0000000000000000e+00 0 0 0
1914 174 4 -2.1000000000000001e+00 -2.7279800000000001e+00 0.0000000000000000e+00 0 0 0
1934 194 4 -1.0500000000000000e+00 -2.7279800000000001e+00 0.0000000000000000e+00 0 0 0
1805 65 4 -7.8750000000000000e+00 -1.8186500000000001e+00 0.0000000000000000e+00 0 0 0
1815 75 4 -7.3499999999999996e+00 -9.0932999999999997e-01 0.0000000000000000e+00 0 0 0
1825 85 4 -6.8250000000000002e+00 -1.8186500000000001e+00 0.0000000000000000e+00 0 0 0
1835 95 4 -6.2999999999999998e+00 -9.0932999999999997e-01 0.0000000000000000e+00 0 0 0
1845 105 4 -5.7750000000000004e+00 -1.8186500000000001e+00 0.0000000000000000e+00 0 0 0
1855 115 4 -5.2500000000000000e+00 -9.0932999999999997e-01 0.0000000000000000e+00 0 0 0
1865 125 4 -4.7249999999999996e+00 -1.8186500000000001e+00 0.0000000000000000e+00 0 0 0
1875 135 4 -4.2000000000000002e+00 -9.0932999999999997e-01 0.0000000000000000e+00 0 0 0
1885 145 4 -3.6749999999999998e+00 -1.8186500000000001e+00 0.0000000000000000e+00 0 0 0
1895 155 4 -3.1499999999999999e+00 -9.0932999999999997e-01 0.0000000000000000e+00 0 0 0
1905 165 4 -2.6250000000000000e+00 -1.8186500000000001e+00 0.0000000000000000e+00 0 0 0
692 24 2 -2.2989332134700255e+00 -1.7517898897989985e+00 9.7918155377513971e-01 0 0 0
693 24 2 -2.8491059541365384e+00 -1.0161838044397926e+00 1.2033947002273266e+00 0 0 0
1915 175 4 -2.1000000000000001e+00 -9.0932999999999997e-01 0.0000000000000000e+00 0 0 0
1925 185 4 -1.5750000000000000e+00 -1.8186500000000001e+00 0.0000000000000000e+00 0 0 0
1935 195 4 -1.0500000000000000e+00 -9.0932999999999997e-01 0.0000000000000000e+00 0 0 0
1945 205 4 -5.2500000000000002e-01 -1.8186500000000001e+00 0.0000000000000000e+00 0 0 0
31 2 1 -5.9062500000000000e+00 -8.3354800000000004e+00 1.6875024916199077e+00 0 0 0
2 1 2 -7.4634744577373997e+00 -6.9337702215028978e+00 2.6557139992566041e+00 0 0 0
3 1 2 -6.7035706676383207e+00 -7.0280208595385645e+00 3.3363306742626713e+00 0 0 0
1505 51 2 -7.2486379105848915e+00 -8.7140818251633601e+00 3.3398808617804172e+00 0 1 0
34 2 2 -5.5241746218952059e+00 -8.1360388685232490e+00 3.1248348856679806e+00 0 0 0
33 2 2 -4.5898530435706419e+00 -8.5034070765443843e+00 3.1079064958168345e+00 0 0 0
32 2 2 -4.9896763967742750e+00 -8.4981159202596395e+00 2.1798470744987370e+00 0 0 0
91 4 1 -2.7562500000000001e+00 -8.3354800000000004e+00 1.6875024916199077e+00 0 0 0
92 4 2 -2.5029270676379647e+00 -7.4046124230145640e+00 1.6913723136529843e+00 0 0 0
1574 53 2 -2.8310732217224635e+00 -8.5000089890752140e+00 3.6493412407141830e+00 0 1 0
94 4 2 -2.4785254320595116e+00 -7.2399904725137239e+00 3.5584878822069670e+00 0 0 0
123 5 2 -1.1407563915496799e+00 -6.9201855462834621e+00 3.3743579356567479e+00 0 0 0
1575 53 2 -2.3364639909269425e+00 -8.8794202572809144e+00 2.8875303608097975e+00 0 1 0
93 4 2 -2.2348902386017944e+00 -7.4834329706253877e+00 2.7010923898410755e+00 0 0 0
1 1 1 -7.4812500000000002e+00 -6.8199399999999999e+00 1.6875024916199077e+00 0 0 0
331 12 1 -5.9062500000000000e+00 -5.3044000000000002e+00 1.6875024916199077e+00 0 0 0
334 12 2 -7.2105451699597580e+00 -4.6195985426503139e+00 2.4680677613818482e+00 0 0 0
4 1 2 -5.9917879842318031e+00 -6.3529410091693990e+00 3.4112666107250900e+00 0 0 0
332 12 2 -6.0537048352319376e+00 -6.0724769384075987e+00 2.2138379440775093e+00 0 0 0
333 12 2 -6.7534241179204226e+00 -5.4662398317273055e+00 2.5155888051758302e+00 0 0 0
61 3 1 -4.3312499999999998e+00 -6.8199399999999999e+00 1.6875024916199077e+00 0 0 0
64 3 2 -4.9728461351235236e+00 -5.9299532045365044e+00 3.4731294355418334e+00 0 0 0
63 3 2 -4.6924689236832489e+00 -5.6181533787172926e+00 2.6089650735339935e+00 0 0 0
62 3 2 -4.2679084436328329e+00 -5.8244656868978106e+00 1.7665843557597547e+00 0 0 0
395 14 2 -3.2587364190419028e+00 -6.1890782107323581e+00 3.7945053896407854e+00 0 0 0
394 14 2 -3.4928454815484238e+00 -6.6801473274268206e+00 3.0054197516380028e+00 0 0 0
121 5 1 -1.1812499999999999e+00 -6.8199399999999999e+00 1.6875024916199077e+00 0 0 0
391 14 1 -2.7562500000000001e+00 -5.3044000000000002e+00 1.6875024916199077e+00 0 0 0
392 14 2 -2.5223536296793712e+00 -6.2710643244213466e+00 1.5777117886771466e+00 0 0 0
122 5 2 -1.3628125698561000e+00 -6.5390479309083318e+00 2.5540895711490896e+00 0 0 0
393 14 2 -2.7549311477282461e+00 -6.1104750296708357e+00 2.5326009746761544e+00 0 0 0
426 15 2 -2.8569725155492396e+00 -5.2505236721648032e+00 3.3992100569777279e+00 0 0 0
301 11 1 -7.4812500000000002e+00 -3.7888500000000001e+00 1.6875024916199077e+00 0 0 0
632 22 2 -5.7607919129621248e+00 -2.3419460406770098e+00 2.6701747724712419e+00 0 0 0
302 11 2 -6.5813651459157558e+00 -3.5855935805908898e+00 1.8817645233505427e+00 0 0 0
335 12 2 -7.8745946459220724e+00 -4.2907799380399716e+00 3.1771406246816056e+00 0 0 0
304 11 2 -6.3989668630599379e+00 -4.4777714551719736e+00 3.4198881732359658e+00 0 0 0
633 22 2 -5.5474276608458872e+00 -2.9768758929593266e+00 3.3942221845649816e+00 0 0 0
634 22 2 -6.4951253518020433e+00 -2.9607122170597506e+00 3.3324825490146259e+00 0 0 0
303 11 2 -6.1039571017959968e+00 -3.9862624520793659e+00 2.6362252605779606e+00 0 0 0
364 13 2 -3.9565568498113235e+00 -4.0930769311222148e+00 2.5677208134209915e+00 0 0 0
361 13 1 -4.3312499999999998e+00 -3.7888500000000001e+00 1.6875024916199077e+00 0 0 0
365 13 2 -3.7266233157068616e+00 -4.3684649043810975e+00 3.4809031597639963e+00 0 0 0
363 13 2 -3.1943160115813427e+00 -3.7856209254201794e+00 2.0694180778321223e+00 0 0 0
386 13 2 -3.0783416989361734e+00 -3.4582018215226467e+00 3.5648001673106724e+00 0 0 0
423 15 2 -4.3626092259260785e-01 -4.3202301467926754e+00 2.8824807853626182e+00 0 0 0
421 15 1 -1.1812499999999999e+00 -3.7888500000000001e+00 1.6875024916199077e+00 0 0 0
424 15 2 -1.4450648786702363e+00 -4.1488264976073950e+00 3.0846946191888409e+00 0 0 0
425 15 2 -2.3438316856458412e+00 -4.4539242815673452e+00 3.2956377761396500e+00 0 0 0
387 13 2 -2.1868468766764115e+00 -3.0013241980789980e+00 3.4391261280576400e+00 0 0 0
422 15 2 -8.4732415034323960e-01 -4.5398461531535723e+00 2.0591331146689238e+00 0 0 0
631 22 1 -5.9062500000000000e+00 -2.2733099999999999e+00 1.6875024916199077e+00 0 0 0
601 21 1 -7.4812500000000002e+00 -7.5777000000000005e-01 1.6875024916199077e+00 0 0 0
934 32 2 -5.8355154025873395e+00 -1.5598478811073233e-01 3.4243987852406734e+00 0 0 0
635 22 2 -6.7959335453773715e+00 -2.0814619063249489e+00 3.1938054184831643e+00 0 0 0
605 21 2 -7.5184379191950015e+00 -3.5672194544725605e-01 3.5099005123353222e+00 0 0 0
661 23 1 -4.3312499999999998e+00 -7.5777000000000005e-01 1.6875024916199077e+00 0 0 0
662 23 2 -4.6376400618907487e+00 -1.9163825739975920e-01 2.4987176928334729e+00 0 0 0
694 24 2 -3.1095223971027215e+00 -1.0443003933171966e+00 2.1260254803031819e+00 0 0 0
663 23 2 -5.0924683310973791e+00 -1.0714460966071206e+00 2.8480871691291272e+00 0 0 0
695 24 2 -3.2782530407391999e+00 -3.3510220093313303e-01 2.7630325468046042e+00 0 0 0
383 13 2 -2.9786824797287159e+00 -8.4987975243499525e-01 3.8008615818767906e+00 0 0 0
691 24 1 -2.7562500000000001e+00 -2.2733099999999999e+00 1.6875024916199077e+00 0 0 0
721 25 1 -1.1812499999999999e+00 -7.5777000000000005e-01 1.6875024916199077e+00 0 0 0
722 25 2 -2.0342213979803461e+00 -1.0176952930021979e+00 1.9859442221534573e+00 0 0 0
723 25 2 -1.4501043088881691e+00 -9.7199130004888745e-01 2.7310449337188420e+00 0 0 0
724 25 2 -1.6306300664462343e+00 -1.1420995966865055e+00 3.6688461970667370e+00 0 0 0
1508 51 2 -7.7135429078987805e+00 -7.7744466260125868e+00 5.3889775376741555e+00 0 1 0
1509 51 2 -7.0080125585180770e+00 -7.7127714448560667e+00 5.9934794685269939e+00 0 1 0
1506 51 2 -7.4777471029137752e+00 -8.6427653673945191e+00 4.2514356375211531e+00 0 1 0
36 2 2 -6.7082905219183999e+00 -7.7248133397600167e+00 4.4513496865153970e+00 0 0 0
37 2 2 -6.8839279509761884e+00 -8.4586405764163324e+00 5.1254369426472746e+00 0 0 0
38 2 2 -6.3282453629763991e+00 -8.8930360210339856e+00 5.7929118068100953e+00 0 0 0
35 2 2 -6.1476475357252269e+00 -8.2137686492228585e+00 3.8746170726624629e+00 0 0 0
65 3 2 -5.1729715901424473e+00 -6.8298020296560864e+00 3.9446347688600407e+00 0 0 0
66 3 2 -4.6789146069928051e+00 -6.9439373393202324e+00 4.7378851038845076e+00 0 0 0
67 3 2 -4.1350559480218259e+00 -7.6526977788546597e+00 4.8824194316267642e+00 0 0 0
68 3 2 -4.3510189022827701e+00 -8.3984300361497581e+00 5.5808264687601215e+00 0 0 0
96 4 2 -2.8908515384208497e+00 -7.9243008773595056e+00 4.9960644048600980e+00 0 0 0
1573 53 2 -2.8499448569272854e+00 -8.8258372468121813e+00 4.4873908416453592e+00 0 1 0
156 6 2 -8.0957310954275008e-01 -8.7276823609181466e+00 5.1173583207398190e+00 0 0 0
95 4 2 -2.7715521705309603e+00 -7.1783434022077923e+00 4.5049834368189288e+00 0 0 0
155 6 2 -5.6211511807822889e-01 -8.3187997409612713e+00 4.3148784455987244e+00 0 0 0
127 5 2 -1.5112192204678037e+00 -7.4909888557321151e+00 5.8292883552159624e+00 0 0 0
97 4 2 -2.4839321025132755e+00 -8.1648467337159811e+00 5.8629644078982395e+00 0 0 0
126 5 2 -8.5293040646071960e-01 -6.8287685232311475e+00 5.5711291109666128e+00 0 0 0
577 20 2 -7.4647645903469124e+00 -6.5816328711260184e+00 4.4058662997812981e+00 1 0 0
5 1 2 -5.7241640109638565e+00 -5.9646104101517512e+00 4.2440460294923916e+00 0 0 0
576 20 2 -7.0453544652880815e+00 -5.7423883448006423e+00 4.1696703353845184e+00 1 0 0
7 1 2 -6.1808197926998236e+00 -5.7932713755875902e+00 5.9801914432270387e+00 0 0 0
6 1 2 -5.9522331651312719e+00 -6.2039372008439271e+00 5.1494799029044351e+00 0 0 0
307 11 2 -6.6011340530071703e+00 -4.5778755462775154e+00 5.9317868399715321e+00 0 0 0
578 20 2 -7.7093059376074384e+00 -5.8696310494560757e+00 4.9299153405112799e+00 1 0 0
575 20 2 -7.6864269722086078e+00 -5.0222434014130570e+00 3.8859336336938481e+00 1 0 0
397 14 2 -4.3239882814596342e+00 -5.4014434953727903e+00 4.3024354469509687e+00 0 0 0
398 14 2 -4.4162193511010992e+00 -5.4670040101371047e+00 5.2956618848908903e+00 0 0 0
399 14 2 -4.3537890016182637e+00 -6.2987002861294714e+00 5.8004414553308328e+00 0 0 0
396 14 2 -3.3715106393090299e+00 -5.4638784179798696e+00 4.4890479730834913e+00 0 0 0
124 5 2 -1.3869175846329658e+00 -6.5988147679514890e+00 4.2519407733449075e+00 0 0 0
125 5 2 -1.0091479395303817e+00 -6.0834543162458381e+00 4.9202118399029029e+00 0 0 0
427 15 2 -2.3024905958317126e+00 -5.5661601448893752e+00 4.0777390693081337e+00 0 0 0
209 7 2 -2.5803357938098626e+00 -4.6192463717169936e+00 5.6613553559878760e+00 0 0 0
428 15 2 -1.3729907429581283e+00 -5.3683666949641209e+00 4.0439549206889538e+00 0 0 0
429 15 2 -1.5559948620629755e+00 -5.1927110790497188e+00 5.0311610089146912e+00 0 0 0
430 15 2 -1.4192594919767705e+00 -4.8970395039417687e+00 5.9066465378461777e+00 0 0 0
306 11 2 -6.2249920401804957e+00 -4.2026411249286344e+00 5.0944950456182863e+00 0 0 0
305 11 2 -6.7706785997234542e+00 -3.9960714151323136e+00 4.2382599420466169e+00 0 0 0
636 22 2 -7.3664080905473011e+00 -2.2834333662900463e+00 4.0441518112925063e+00 0 0 0
637 22 2 -6.8357089461247913e+00 -2.4236360497558582e+00 4.7799071748393596e+00 0 0 0
369 13 2 -5.2432144866168207e+00 -3.4432668311344212e+00 5.6033648224199268e+00 0 0 0
367 13 2 -3.6758936849094437e+00 -3.1687708480490251e+00 4.7917910225944507e+00 0 0 0
366 13 2 -4.0668324586927982e+00 -3.7485807746972877e+00 4.1053813231546377e+00 0 0 0
368 13 2 -4.6126475656624804e+00 -2.9673342042110757e+00 5.0344426787673440e+00 0 0 0
385 13 2 -3.5540811592781063e+00 -2.7009576903386856e+00 3.8261987862795386e+00 0 0 0
210 7 3 -3.2986820612674035e+00 -4.4637603216871220e+00 4.9738772586313305e+00 0 0 0
390 13 3 -4.5637148121925064e-01 -4.0330624332869798e+00 3.9914498680572974e+00 0 0 0
389 13 2 -1.3477749699517914e+00 -4.3364930177758199e+00 4.2349967001061319e+00 0 0 0
388 13 2 -1.4477704191041556e+00 -3.3522832921931531e+00 3.9836265947119589e+00 0 0 0
1229 41 2 -2.7226079052052818e+00 -3.1372303340551695e+00 5.1987411106937884e+00 0 0 0
1230 41 3 -2.0929980418964402e+00 -3.8254076320825514e+00 5.1601272058371022e+00 0 0 0
758 26 2 -3.9380293620455392e-01 -3.0315496688766843e+00 6.0353201146469182e+00 0 0 0
607 21 2 -7.7665876168718242e+00 -2.2251078802380062e-01 4.5081122081337934e+00 0 0 0
936 32 2 -6.5504172005037198e+00 -2.4342032325140234e-01 5.0335971438128473e+00 0 0 0
640 22 2 -6.2811607942242222e+00 -2.2055076823082254e+00 6.0641623639165427e+00 0 0 0
638 22 2 -6.4475842783548734e+00 -1.6659278008973577e+00 4.4129234330570322e+00 0 0 0
937 32 2 -6.6119364922680948e+00 -2.9489002023082422e-01 6.0073275577387752e+00 0 0 0
639 22 2 -6.0969306453141279e+00 -1.7465778112682502e+00 5.2811740812390564e+00 0 0 0
667 23 2 -5.6860905336152499e+00 -7.5432348520815340e-01 5.3850266707420191e+00 0 0 0
664 23 2 -4.8598258858023646e+00 -1.0994700545957035e+00 3.8229855729824571e+00 0 0 0
665 23 2 -4.3167347566017957e+00 -1.4404803712331717e+00 4.4657856698043297e+00 0 0 0
384 13 2 -3.2392276144687457e+00 -1.7757849109732824e+00 4.0336591042668060e+00 0 0 0
666 23 2 -5.1377903420687749e+00 -1.3755678030815701e+00 4.9581555488060793e+00 0 0 0
382 13 2 -3.6549752765325945e+00 -5.3893508785191724e-01 4.3809562509165820e+00 0 0 0
381 13 2 -2.8897545354304652e+00 -1.1594640596436280e-01 4.7127742547662539e+00 0 0 0
379 13 2 -3.0623209413921648e+00 -1.7997996414295847e+00 5.1303399370789950e+00 0 0 0
378 13 2 -3.2026318956122779e+00 -1.1347754842839595e+00 5.8985707007068617e+00 0 0 0
996 34 2 -1.6195722953696192e+00 -3.3830552103326100e-01 4.3795749666641370e+00 0 0 0
726 25 2 -7.1940939143863936e-01 -1.1617907589768253e+00 5.3409019955499195e+00 0 0 0
725 25 2 -1.2900792422527618e+00 -1.3187645769845235e+00 4.5552924805285997e+00 0 0 0
380 13 2 -2.5127794173874221e+00 -9.6066470158704331e-01 4.9956813240186149e+00 0 0 0
1510 51 2 -7.4617423290738492e+00 -7.6855481441188545e+00 6.8386044490934044e+00 0 1 0
1511 51 2 -7.5581039608173253e+00 -7.0918444571388228e+00 7.5392856433456137e+00 0 1 0
1513 51 2 -6.7972194002463544e+00 -7.7208980683064770e+00 8.3379650902112417e+00 0 1 0
1512 51 2 -6.6039838668756063e+00 -7.3853387306744320e+00 7.4010960954546503e+00 0 1 0
39 2 2 -6.4527915269976006e+00 -8.6496036122748254e+00 6.7289602494260601e+00 0 0 0
40 2 2 -5.5518948644305031e+00 -8.6384292105094360e+00 7.0959996319015515e+00 0 0 0
71 3 2 -4.6658124951885700e+00 -7.4398432025559673e+00 7.3708772020575335e+00 0 0 0
70 3 2 -4.2073107769350733e+00 -8.1324511285751662e+00 6.8259098769497619e+00 0 0 0
69 3 2 -4.6396754630903354e+00 -8.8949943955596105e+00 6.4586529636833481e+00 0 0 0
73 3 2 -3.8916048017794371e+00 -7.4164021951096055e+00 8.0683596597264504e+00 0 0 0
74 3 2 -4.4680459951359772e+00 -8.2169668194759851e+00 8.2491821153359766e+00 0 0 0
159 6 2 -4.2883708991539465e-01 -8.0719668664708220e+00 7.6132229653215537e+00 0 0 0
99 4 2 -2.7656441405731296e+00 -8.8148783329194451e+00 7.6051438313249289e+00 0 0 0
98 4 2 -2.8312638218264716e+00 -8.7287051920198930e+00 6.6070380962991182e+00 0 0 0
128 5 2 -1.8745311384124193e+00 -6.9967202840786040e+00 6.5722963485210100e+00 0 0 0
129 5 2 -2.2762215904036038e+00 -6.9542669308158178e+00 7.4891637554530783e+00 0 0 0
310 11 2 -7.8556556039620915e+00 -5.5596698323183302e+00 8.0955873245158081e+00 0 0 0
9 1 2 -6.9744513053250596e+00 -6.1727670794108853e+00 7.5995686199678962e+00 0 0 0
309 11 2 -7.6159689485283284e+00 -5.0803578229459916e+00 7.3565731952201938e+00 0 0 0
8 1 2 -6.3178557505360811e+00 -5.9845811260886830e+00 6.9363139450623450e+00 0 0 0
308 11 2 -6.9302349168191624e+00 -4.7843328843195332e+00 6.8238515468078234e+00 0 0 0
10 1 2 -6.5649029990095933e+00 -5.8096285341185681e+00 8.3370763876064924e+00 0 0 0
72 3 2 -4.1770073878621155e+00 -6.5906662220836694e+00 7.5554525382885842e+00 0 0 0
400 14 2 -4.8582305587909271e+00 -6.0631178794844462e+00 6.5380836322712410e+00 0 0 0
402 14 2 -4.4558942721700232e+00 -4.9827214261891299e+00 6.4713141670208314e+00 0 0 0
401 14 2 -4.0247579952556327e+00 -5.8410498798438955e+00 6.8280410792902249e+00 0 0 0
403 14 2 -4.9812298890709714e+00 -4.7525752078380812e+00 7.1763106141121318e+00 0 0 0
406 14 2 -3.4891756350593957e+00 -5.1213827289445470e+00 8.2429085740014667e+00 0 0 0
208 7 2 -2.6737559974442937e+00 -4.8395560752797815e+00 6.6013708955353527e+00 0 0 0
207 7 2 -2.6538977685842302e+00 -5.7778153879743170e+00 6.5439763126778372e+00 0 0 0
206 7 2 -1.8333891989965267e+00 -5.8674855457985817e+00 7.1136706085463386e+00 0 0 0
130 5 2 -2.6616405453920153e+00 -6.4098998726252860e+00 8.1162807677190951e+00 0 0 0
205 7 2 -1.6965947891855095e+00 -5.5828185642924613e+00 8.0563695084645062e+00 0 0 0
371 13 2 -5.4009057263404587e+00 -4.1336617441637422e+00 6.4165244076407246e+00 0 0 0
641 22 2 -7.0488449965415692e+00 -2.7774892277772878e+00 6.1837609032502510e+00 0 0 0
642 22 2 -6.9194645781899133e+00 -3.4243371399315774e+00 6.8740922078296380e+00 0 0 0
372 13 2 -5.5142580840696134e+00 -3.2351024022865325e+00 6.9017274059539400e+00 0 0 0
643 22 2 -6.2572170275740984e+00 -4.1076824493273829e+00 7.0804424036061278e+00 0 0 0
888 30 2 -6.6376247728859825e+00 -2.5148756988876331e+00 7.9939251197237162e+00 1 0 0
887 30 2 -7.2796832399804634e+00 -3.3035812192949683e+00 7.9859802081903117e+00 1 0 0
644 22 2 -6.2698979375797261e+00 -4.4919260221771031e+00 7.9500147248228776e+00 0 0 0
645 22 2 -5.4093916079853628e+00 -4.5168321395649915e+00 8.2958167692261515e+00 0 0 0
1226 41 2 -3.4813260113426696e+00 -2.5243388229833501e+00 7.4879720077717629e+00 0 0 0
370 13 2 -4.4850303088042658e+00 -3.8546483703868075e+00 6.1270523489731579e+00 0 0 0
373 13 2 -4.6139483370300232e+00 -2.7754383279546864e+00 7.0577284760004435e+00 0 0 0
1227 41 2 -3.6099528367482341e+00 -3.0602390829378860e+00 6.6882505888187698e+00 0 0 0
1225 41 2 -4.0200518701739476e+00 -2.9594294175955942e+00 8.1921750028787219e+00 0 0 0
405 14 2 -3.5558651894615436e+00 -4.3410453809980458e+00 7.5965558633092023e+00 0 0 0
404 14 2 -4.4272614161324961e+00 -4.0204809489942219e+00 7.5268047788695824e+00 0 0 0
761 26 2 -6.0505370169360906e-01 -2.9890587238816417e+00 7.9436182319988218e+00 0 0 0
759 26 2 -1.2542442523696928e+00 -2.6243942662038644e+00 6.4061708219171507e+00 0 0 0
431 15 2 -1.4819074294225774e+00 -4.4190141816025461e+00 6.7568575000824334e+00 0 0 0
432 15 2 -9.5462313317798342e-01 -3.9408249981204198e+00 7.3803840577038695e+00 0 0 0
434 15 2 -4.8435658147316113e-01 -4.0949419418507249e+00 8.3092126771699029e+00 0 0 0
760 26 2 -7.0365881498446392e-01 -3.0193626186228526e+00 7.0237329225364444e+00 0 0 0
1228 41 2 -2.7398451594220865e+00 -3.1350056928839733e+00 6.2091666798729745e+00 0 0 0
610 21 2 -7.7583028257840443e+00 -1.6397202088616472e+00 6.8341663833347335e+00 0 0 0
1219 41 2 -5.7474549594052773e+00 -1.9859266731045371e+00 7.1386359886810995e+00 0 0 0
1218 41 2 -5.9480044144222610e+00 -1.3592598965141238e+00 7.8131013216943579e+00 0 0 0
1217 41 2 -6.4774467359983623e+00 -6.0340877311184649e-01 7.4606604792547344e+00 0 0 0
611 21 2 -7.6950382259527954e+00 -1.2743649696106851e+00 7.8273735780080305e+00 0 0 0
706 24 2 -3.0357093043735093e+00 -5.3231486179752718e-01 7.7910152949913378e+00 0 0 0
377 13 2 -3.9306360783853886e+00 -7.3294671871307415e-01 6.3199254201523747e+00 0 0 0
670 23 2 -5.0638543093128998e+00 -1.6483986278584806e-01 7.4152738100963624e+00 0 0 0
1220 41 2 -4.8240358383831738e+00 -1.7231138115178792e+00 7.1959983909727088e+00 0 0 0
374 13 2 -4.3221936427705057e+00 -2.2310845719999870e+00 6.2535627299173555e+00 0 0 0
376 13 2 -3.9932795024676828e+00 -7.7545819001925154e-01 7.2973894139533657e+00 0 0 0
375 13 2 -3.8780010094017934e+00 -1.6011218352866781e+00 6.8244491439830961e+00 0 0 0
671 23 2 -5.0211084785244715e+00 -5.6271561116151136e-01 8.2874135794993027e+00 0 0 0
1221 41 2 -5.1615473554443376e+00 -1.9449516650895255e+00 8.0670157614408229e+00 0 0 0
730 25 2 -1.7582116891579234e+00 -1.0040990011314299e+00 7.5943579897906242e+00 0 0 0
727 25 2 -9.7331231375557881e-01 -1.6586877988513078e+00 6.1448144641567666e+00 0 0 0
729 25 2 -9.2888660622322083e-01 -1.5218033119469283e+00 7.4776570319348554e+00 0 0 0
732 25 2 -1.9420300865428417e+00 -1.9933301161349419e+00 8.2582361415334820e+00 0 0 0
731 25 2 -1.9680773887462681e+00 -1.9807359386275649e+00 7.3420828010173516e+00 0 0 0
1514 51 2 -7.0028361905220695e+00 -7.9848595005402778e+00 9.2369705739049124e+00 0 1 0
1515 51 2 -7.0906449035893298e+00 -7.2007805373665246e+00 9.8107581708722105e+00 0 1 0
77 3 2 -5.5049333968046197e+00 -8.0779452583935640e+00 1.0266102454915897e+01 0 0 0
75 3 2 -4.6171642643590163e+00 -7.4456319741210661e+00 8.7775465829526240e+00 0 0 0
76 3 2 -4.9375956503468075e+00 -7.8968159777982230e+00 9.5009229398615673e+00 0 0 0
101 4 2 -3.4853848515732455e+00 -8.5555678790768486e+00 9.0929564840765238e+00 0 0 0
168 6 2 -2.1439620915201201e+00 -8.7666218826415339e+00 9.8224127345467291e+00 0 0 0
166 6 2 -9.3848063441256979e-01 -7.5204145365195618e+00 8.9971159319211793e+00 0 0 0
167 6 2 -1.4821004184462354e+00 -8.3482446109055513e+00 9.2036694153666438e+00 0 0 0
131 5 2 -2.5654457651033979e+00 -6.8875668060962614e+00 8.9452080187666265e+00 0 0 0
172 6 2 -1.1446945925622147e+00 -8.7955393692678232e+00 1.0594384415066317e+01 0 0 0
169 6 2 -2.3475250372122516e+00 -8.0277615071793118e+00 1.0511597818199153e+01 0 0 0
11 1 2 -6.8739622507037286e+00 -6.4462457231361325e+00 9.0681336436469220e+00 0 0 0
312 11 2 -7.3423871496384772e+00 -4.9889162260628144e+00 9.3838544977610958e+00 0 0 0
13 1 2 -5.7916094825274653e+00 -6.0763844630219230e+00 9.8376877197959889e+00 0 0 0
12 1 2 -6.6815762517904487e+00 -6.2155671638582177e+00 1.0000828969809014e+01 0 0 0
313 11 2 -7.1372479563240070e+00 -4.9061553126849855e+00 1.0352903598511833e+01 0 0 0
14 1 2 -6.0044047244959726e+00 -5.5168978082315716e+00 1.0580848317701095e+01 0 0 0
649 22 2 -3.2785266557106141e+00 -5.0170257940848595e+00 9.6588661522060999e+00 0 0 0
647 22 2 -5.1985716949619727e+00 -5.3163307305442711e+00 9.6069323077868347e+00 0 0 0
648 22 2 -4.2542327220019081e+00 -4.9353027038219235e+00 9.6228105285457399e+00 0 0 0
646 22 2 -4.9581670107857505e+00 -5.2586644368198936e+00 8.7370756774907150e+00 0 0 0
650 22 2 -2.4628308693558902e+00 -4.8916187668340445e+00 1.0103093520139065e+01 0 0 0
133 5 2 -2.1778616383153504e+00 -6.1127902313754809e+00 9.8193066878166189e+00 0 0 0
132 5 2 -2.5762459623913689e+00 -5.8418003977387256e+00 8.9351468929654292e+00 0 0 0
204 7 2 -1.3238185317430315e+00 -5.7253528037938297e+00 8.9140154158436058e+00 0 0 0
407 14 2 -2.6010210669955645e+00 -4.9257547006218356e+00 8.4198396755716232e+00 0 0 0
134 5 2 -1.5518441902826174e+00 -6.5828580111302601e+00 1.0405559732224674e+01 0 0 0
891 30 2 -6.5029787063017492e+00 -3.6344606222083802e+00 9.3979056195260586e+00 1 0 0
1131 38 2 -7.7591702069541277e+00 -2.2825970819100307e+00 1.0083118428012460e+01 1 0 0
892 30 2 -7.3915469387495962e+00 -3.9485118223372186e+00 9.7870495567109526e+00 1 0 0
890 30 2 -5.9599293856168494e+00 -3.4745137368314700e+00 8.5937687111676038e+00 1 0 0
889 30 2 -6.0391331426344541e+00 -2.5603916021913133e+00 8.8056374771290500e+00 1 0 0
314 11 2 -6.3939319571918487e+00 -4.3110132952335460e+00 1.0344743577236722e+01 0 0 0
409 14 2 -3.3870216109378166e+00 -3.7019233008213721e+00 9.6049509585187796e+00 0 0 0
1224 41 2 -3.7939370731006981e+00 -2.7572447192769309e+00 9.1587931096874851e+00 0 0 0
1222 41 2 -4.9159022818102898e+00 -2.5759580520113654e+00 8.8790839464185218e+00 0 0 0
412 14 2 -4.9226080115057558e+00 -3.6048289396908744e+00 1.0254315549743112e+01 0 0 0
411 14 2 -4.6557078844173212e+00 -2.6501405155876707e+00 1.0543433462196083e+01 0 0 0
410 14 2 -3.8105396446102957e+00 -3.0989255312702735e+00 1.0200576395322781e+01 0 0 0
436 15 2 -1.2185215852852447e+00 -4.1421902730627771e+00 9.9605271690047879e+00 0 0 0
435 15 2 -4.4292334327374400e-01 -3.9077507684406174e+00 9.3391905816361174e+00 0 0 0
408 14 2 -2.7806777776848439e+00 -4.1091302433255246e+00 8.9706136580359264e+00 0 0 0
613 21 2 -7.2452660557175310e+00 -1.1921586437751885e-01 9.4154571641679485e+00 0 0 0
612 21 2 -7.7343381044508428e+00 -6.0146870479870540e-01 8.5925004462135313e+00 0 0 0
708 24 2 -3.1642340072365140e+00 -2.3434914617154023e-02 8.8209872288934204e+00 0 0 0
707 24 2 -3.5799814976440745e+00 -7.5471452102848846e-01 8.5779277829122211e+00 0 0 0
710 24 2 -3.4078367826763465e+00 -2.2237520059886462e-01 9.9561154129438592e+00 0 0 0
672 23 2 -4.4169359364292982e+00 -3.7065983966989080e-01 9.1850734216052867e+00 0 0 0
673 23 2 -4.3364887650756385e+00 -1.1928033057960361e+00 9.7470296140245161e+00 0 0 0